 VARIABLES = X Y Z
 ZONE N = 103, E = 156, DATAPACKING= POINT, ZONETYPE= FETRIANGLE
0  1.05  1.8
0  -1.05  1.8
16  0  2
7.41974  -1.05  1.89275
9.89552  -1.05  1.92369
11.0303  -1.04919  1.93788
12.2264  -1.03024  1.95283
13.1181  -0.986682  1.96398
13.8456  -0.921704  1.97307
14.3822  -0.847804  1.97978
14.5933  -0.809797  1.98242
14.7532  -0.774977  1.98441
14.8568  -0.746921  1.98571
14.9336  -0.722145  1.98667
14.9975  -0.698415  1.98747
15.0678  -0.668681  1.98835
15.1413  -0.633351  1.98927
15.2164  -0.592717  1.99021
15.2927  -0.547348  1.99116
15.3692  -0.498288  1.99212
15.4702  -0.428942  1.99338
15.5802  -0.348395  1.99475
15.7157  -0.242724  1.99645
15.8814  -0.10491  1.99852
15.9683  -0.02871  1.9996
16  0  2
7.41974  1.05  1.89275
9.89552  1.05  1.92369
11.0303  1.04919  1.93788
12.2264  1.03024  1.95283
13.1181  0.986682  1.96398
13.8456  0.921704  1.97307
14.3822  0.847804  1.97978
14.5933  0.809797  1.98242
14.7532  0.774977  1.98441
14.8568  0.746921  1.98571
14.9336  0.722145  1.98667
14.9975  0.698415  1.98747
15.0678  0.668681  1.98835
15.1413  0.633351  1.98927
15.2164  0.592717  1.99021
15.2927  0.547348  1.99116
15.3692  0.498288  1.99212
15.4702  0.428942  1.99338
15.5802  0.348395  1.99475
15.7157  0.242724  1.99645
15.8814  0.10491  1.99852
15.9683  0.02871  1.9996
13.4819  0  1.96852
15.8053  0  1.99757
15.931  0  1.99914
12.8541  0.501507  1.96068
12.8541  -0.501507  1.96068
13.9366  0.4555  1.97421
13.9366  -0.4555  1.97421
15.532  0.192158  1.99415
15.5682  0.178687  1.9946
15.6038  0.165234  1.99505
15.6499  0.147439  1.99562
15.6996  0.127789  1.99625
15.532  -0.192158  1.99415
15.5682  -0.178687  1.9946
15.6038  -0.165234  1.99505
15.6499  -0.147439  1.99562
15.6996  -0.127789  1.99625
15.2619  0.424589  1.99077
15.299  0.407539  1.99124
15.3373  0.389333  1.99172
15.3756  0.37055  1.99219
15.2619  0.14153  1.99077
15.7983  0.131372  1.99748
15.6778  0.0682303  1.99597
15.6942  0.0649732  1.99618
15.7104  0.0617482  1.99638
15.2619  -0.424589  1.99077
15.8313  0.0368842  1.99789
15.299  -0.407539  1.99124
15.3373  -0.389333  1.99172
15.3756  -0.37055  1.99219
15.6778  -0.0682303  1.99597
15.6942  -0.0649732  1.99618
15.7104  -0.0617482  1.99638
15.8313  -0.0368842  1.99789
15.7983  -0.131372  1.99748
15.0044  0.434794  1.98755
15.0558  0.421272  1.9882
15.0947  0.410166  1.98868
15.1274  0.400228  1.98909
15.4796  0.369503  1.99349
15.3983  0.179547  1.99248
15.0044  -0.260876  1.98755
15.0558  -0.252763  1.9882
15.0947  -0.246099  1.98868
15.3983  -0.0598491  1.99248
15.477  0  1.99346
15.9115  0.049259  1.99889
15.4796  -0.369503  1.99349
15.9115  -0.049259  1.99889
14.5112  0.0515863  1.98139
14.5112  -0.361104  1.98139
15.131  -0.0399119  1.98914
15.1957  -0.339961  1.98995
14.7656  0.265337  1.98457
85  36  37
85  37  38
86  38  39
86  85  38
87  86  39
4  2  1
4  1  27
87  70  86
87  39  40
88  70  87
88  87  40
88  66  70
88  40  66
59  45  46
89  58  57
89  57  56
89  43  44
89  44  45
89  69  43
59  58  45
5  27  28
89  56  69
89  45  58
90  70  66
5  4  27
90  66  67
90  67  68
90  68  69
90  69  56
6  28  29
91  13  12
91  14  13
6  5  28
91  15  14
7  29  30
7  6  29
64  23  22
64  22  63
94  80  61
95  90  56
95  80  94
95  70  90
95  94  70
66  40  41
95  56  72
66  41  42
95  72  80
96  47  48
96  48  26
96  71  47
96  51  76
96  26  51
96  76  71
97  21  20
67  66  42
97  22  21
97  20  79
97  62  63
68  42  43
97  61  62
97  63  22
68  67  42
97  79  61
98  25  24
98  3  25
69  68  43
98  84  83
98  51  3
98  83  51
98  24  84
99  33  34
99  54  33
99  55  54
100  11  10
100  12  11
100  91  12
100  99  91
100  55  99
100  10  55
71  60  59
101  85  86
71  46  47
101  92  91
101  93  92
71  59  46
101  86  70
101  94  93
72  58  59
101  70  94
72  57  58
102  15  91
72  56  57
102  16  15
72  59  60
102  17  16
102  91  92
102  92  93
102  75  17
102  94  61
102  93  94
73  72  60
102  77  75
102  78  77
73  50  72
102  61  79
102  79  78
74  73  60
103  36  85
74  50  73
103  85  101
103  91  99
103  34  35
103  35  36
103  99  34
103  101  91
75  18  17
75  19  18
49  9  8
49  31  32
76  74  60
76  60  71
76  50  74
76  51  50
77  19  75
78  20  19
78  19  77
79  20  78
80  64  63
80  65  64
51  26  3
80  63  62
80  62  61
80  72  50
52  31  49
52  30  31
81  80  50
81  65  80
53  8  7
53  49  8
82  81  50
53  7  30
82  65  81
53  52  49
53  30  52
83  50  51
54  49  32
83  65  82
54  32  33
83  82  50
84  64  65
84  24  23
55  10  9
84  23  64
55  49  54
84  65  83
55  9  49
 VARIABLES = X Y Z
 ZONE N = 101, E = 190, DATAPACKING= POINT, ZONETYPE= FETRIANGLE
0  0  0.6
0  0  0.6
0  -1.05  1.8
0  -0.609  0.6
0  -0.8295  0.72
0  -1.05  0.84
0  1.05  1.8
0  0.609  0.6
0  0.8295  0.72
0  1.05  0.84
0  0  0.61441
0  0  0.833034
0  0.304497  0.6
0  -0.304497  0.6
0  0.478304  0.789175
0  0.525  0.842705
0  -0.478304  0.789175
0  -0.525  0.842705
0  0.461816  0.603676
0  0.787286  0.839844
0  -0.461816  0.603676
0  0.7875  1.10616
0  0.2625  1.10616
0  -0.787286  0.839844
0  -0.7875  1.10616
0  0.860739  0.803919
0  0.639998  0.825849
0  0.91875  0.879473
0  0.65625  0.920632
0  0.91875  1.39928
0  0.13125  0.84
0  0.39375  0.920632
0  0.65625  1.39928
0  -0.639998  0.825849
0  -0.860739  0.803919
0  -0.13125  0.920632
0  -0.65625  0.920632
0  -0.39375  1.39928
0  -0.91875  0.879473
0  -0.91875  1.39928
0  0.837831  0.829756
0  0.984375  0.84
0  0.853125  0.84
0  0.984375  0.841605
0  0.853125  0.967657
0  0.984375  1.1872
0  0.590625  0.868219
0  0.459375  0.868219
0  0.2625  0.842705
0  0.525  1.10616
0  0.196875  0.868219
0  0.459375  1.23927
0  0  0.842705
0  0.065625  0.999945
0  0.328125  1.58619
0  -0.837831  0.829756
0  -0.328125  0.868219
0  -0.065625  1.23927
0  -0.2625  1.10616
0  -0.984375  0.84
0  -0.590625  0.868219
0  -0.459375  0.999945
0  -0.853125  0.84
0  -0.525  1.10616
0  -0.590625  1.23927
0  -0.984375  0.841605
0  -0.853125  0.967657
0  -0.721875  1.58619
0  -0.984375  1.1872
0  0.958822  0.807212
0  0.885938  0.84
0  1.01719  0.895387
0  0.721875  0.84
0  0.754688  0.840401
0  0.328125  0.868219
0  0.164063  0.84
0  -0.164063  0.84
0  0.0328125  0.891063
0  -0.065625  0.868219
0  0.13125  1.39928
0  -0.958822  0.807212
0  -0.492188  0.891063
0  -0.721875  0.84
0  -0.754688  0.840401
0  -0.885938  0.84
0  -1.01719  0.895387
0  1.03359  0.84341
0  0.803906  0.875593
0  0.705469  0.863103
0  -0.3426  0.836796
0  0.0984375  0.8521
0  -0.114844  0.84
0  -0.246094  0.84
0  -0.705469  0.863103
0  -0.803906  0.875593
0  -1.03359  0.84341
0  0.844922  0.846893
0  -0.0902344  0.841407
0  -0.188672  0.849121
0  -0.287109  0.841407
0  -0.844922  0.846893
75  49  16
76  49  51
76  31  49
76  53  31
77  12  31
41  20  27
41  27  26
42  20  41
78  54  36
43  42  10
78  51  54
79  53  78
43  20  42
79  78  36
80  23  55
80  54  23
80  38  58
80  55  38
80  58  54
45  22  29
81  6  5
81  35  56
81  5  35
81  60  6
81  56  60
46  22  45
82  57  62
82  18  57
82  61  18
46  7  30
82  62  64
46  30  22
82  64  37
82  37  61
83  24  18
83  18  61
83  63  24
48  16  47
84  63  83
49  31  16
50  47  29
50  48  47
85  6  63
50  32  48
50  29  22
85  66  6
85  63  84
85  39  66
50  22  33
86  39  67
86  66  39
86  67  69
86  69  3
52  50  33
87  10  7
87  7  72
52  32  50
87  44  10
52  23  32
13  1  8
87  72  44
14  2  1
88  45  29
14  4  2
88  28  45
89  73  74
89  47  73
54  51  23
14  13  11
89  88  29
14  1  13
89  29  47
89  74  88
55  7  3
90  17  12
55  23  52
15  12  11
90  34  17
90  12  77
90  18  24
55  52  33
90  24  34
55  33  7
91  76  51
91  53  76
91  78  53
91  51  78
56  34  24
56  35  34
17  11  12
92  77  31
92  31  53
93  90  77
93  18  90
93  77  92
58  36  54
19  8  9
19  11  13
19  13  8
59  58  38
19  15  11
94  84  83
59  36  58
19  9  15
94  83  61
59  57  36
94  61  37
95  67  39
21  5  4
21  17  5
60  56  24
21  4  14
95  94  37
21  14  11
95  84  94
21  11  17
95  37  67
96  3  6
96  86  3
96  66  86
96  6  66
97  71  28
62  59  38
97  74  71
62  57  59
97  28  88
97  88  74
98  53  79
63  6  60
98  92  53
99  79  36
99  98  79
63  60  24
99  93  92
99  92  98
64  62  38
99  36  57
100  18  93
26  15  9
100  57  18
100  93  99
100  99  57
27  12  15
101  95  39
101  85  84
65  37  64
27  20  16
101  39  85
27  15  26
101  84  95
65  25  37
65  64  38
67  37  25
68  40  25
68  3  40
68  55  3
68  38  55
68  25  65
68  65  38
31  12  27
69  25  40
31  27  16
69  40  3
69  67  25
70  41  26
70  9  10
70  10  42
70  26  9
70  42  41
71  44  28
33  30  7
33  22  30
71  10  44
71  43  10
72  28  44
72  7  46
35  5  17
72  46  45
35  17  34
72  45  28
73  20  43
73  47  16
73  16  20
74  73  43
74  43  71
75  16  48
75  48  32
75  51  49
75  23  51
75  32  23
 VARIABLES = X Y Z
 ZONE N = 11803, E = 23527, DATAPACKING= POINT, ZONETYPE= FETRIANGLE
0  0  0.6
0  1.05  1.8
0  0.609  0.6
0  0.8295  0.72
0  1.05  0.84
14.6959  0  0.0928571
0.708363  0  0.58007
0.999323  0  0.559457
1.28023  0  0.527853
1.49103  0  0.493735
1.65571  0  0.459074
1.80159  0  0.421265
1.95113  0  0.37543
2.10961  0  0.32023
2.3773  0  0.223388
2.54899  0  0.16718
2.64927  0  0.138814
2.78497  0  0.10678
2.90733  0  0.0835043
3.02991  0  0.0647604
3.15269  0  0.0498422
3.31667  0  0.0346867
3.56314  0  0.0195093
4.06359  0  0.00583979
4.82892  0  0.000811823
12.3657  0  2.2612e-13
13.4097  0  8.7429e-15
14.0842  0  0.00555627
14.2562  0  0.0154922
14.3879  0  0.0293137
14.4991  0  0.0461035
14.5924  0  0.0647162
14.6573  0  0.0810154
14.6863  0  0.0896306
16  0  2
7.41974  1.05  1.89275
9.89552  1.05  1.92369
11.0303  1.04919  1.93788
12.2264  1.03024  1.95283
13.1181  0.986682  1.96398
13.8456  0.921704  1.97307
14.3822  0.847804  1.97978
14.5933  0.809797  1.98242
14.7532  0.774977  1.98441
14.8568  0.746921  1.98571
14.9336  0.722145  1.98667
14.9975  0.698415  1.98747
15.0678  0.668681  1.98835
15.1413  0.633351  1.98927
15.2164  0.592717  1.99021
15.2927  0.547348  1.99116
15.3692  0.498288  1.99212
15.4702  0.428942  1.99338
15.5802  0.348395  1.99475
15.7157  0.242724  1.99645
15.8814  0.10491  1.99852
15.9683  0.02871  1.9996
14.75  0  0.112422
14.8461  0  0.147204
14.8546  0  0.150374
14.8611  0  0.153073
14.8689  0  0.156761
14.8762  0  0.160577
14.8851  0  0.16573
14.8933  0  0.171009
14.9034  0  0.178078
14.9127  0  0.185264
14.9254  0  0.195944
14.9369  0  0.206517
14.9484  0  0.217999
14.96  0  0.230392
14.9716  0  0.243695
14.9832  0  0.257909
14.9989  0  0.278275
15.0166  0  0.303122
15.0344  0  0.330017
15.5354  0  1.19528
0.708363  0.305887  0.58007
0.708363  0.505378  0.58007
0.708363  0.579264  0.58007
0.999323  0.305255  0.559457
0.708363  0.598474  0.58007
0.708363  0.60143  0.58007
0.708363  0.60263  0.58007
0.708363  0.603161  0.58007
0.708363  0.603646  0.58007
0.708363  0.604085  0.58007
0.708363  0.604478  0.58007
0.708363  0.604656  0.58007
0.708363  0.604824  0.58007
0.708363  0.60498  0.58007
0.708363  0.605124  0.58007
0.708363  0.605257  0.58007
0.708363  0.605378  0.58007
0.708363  0.605488  0.58007
0.708363  0.605586  0.58007
0.708363  0.605747  0.58007
0.708363  0.605863  0.58007
0.708363  0.605875  0.58007
0.708363  0.605887  0.58007
0.708363  0.605898  0.58007
0.708363  0.605908  0.58007
0.708363  0.605916  0.58007
0.708363  0.605924  0.58007
0.708363  0.605928  0.58007
0.708363  0.605931  0.58007
0.708363  0.605935  0.58007
0.708363  0.605938  0.58007
0.708363  0.60594  0.58007
0.708363  0.605943  0.58007
0.708363  0.605945  0.58007
0.708363  0.605947  0.58007
0.708363  0.605949  0.58007
0.708363  0.605951  0.58007
0.708363  0.605952  0.58007
0.708363  0.605953  0.58007
0.708363  0.605954  0.58007
0.708363  0.605955  0.58007
0.708363  0.605955  0.58007
0.708363  0.605955  0.58007
0.708363  0.605955  0.58007
0.708363  0.605955  0.58007
0.708363  0.605955  0.58007
0.708363  0.605955  0.58007
0.708363  0.605955  0.58007
0.708363  0.605955  0.58007
0.708363  0.605955  0.58007
0.708363  0.605955  0.58007
0.999323  0.504334  0.559457
0.708363  0.605955  0.58007
0.708363  0.605955  0.58007
0.708363  0.605955  0.58007
0.708363  0.605955  0.58007
0.708363  0.605955  0.58007
0.708363  0.605955  0.58007
0.999323  0.578067  0.559457
0.708363  0.605955  0.58007
0.708363  0.605955  0.58007
0.999323  0.597238  0.559457
0.708363  0.605955  0.58007
0.999323  0.600187  0.559457
0.999323  0.601385  0.559457
1.28023  0.304643  0.527853
0.999323  0.601915  0.559457
0.999323  0.602399  0.559457
0.708363  0.605955  0.58007
0.999323  0.602837  0.559457
0.999323  0.603229  0.559457
0.999323  0.603407  0.559457
0.999323  0.603574  0.559457
0.999323  0.60373  0.559457
0.999323  0.603874  0.559457
0.999323  0.604006  0.559457
0.999323  0.604127  0.559457
0.999323  0.604237  0.559457
0.999323  0.604335  0.559457
0.999323  0.604496  0.559457
0.999323  0.604611  0.559457
0.999323  0.604624  0.559457
0.999323  0.604635  0.559457
0.999323  0.604646  0.559457
0.999323  0.604656  0.559457
0.999323  0.604665  0.559457
0.999323  0.604673  0.559457
0.999323  0.604676  0.559457
0.999323  0.60468  0.559457
0.999323  0.604683  0.559457
0.999323  0.604686  0.559457
0.999323  0.604688  0.559457
0.999323  0.604691  0.559457
0.999323  0.604693  0.559457
0.999323  0.604695  0.559457
0.999323  0.604697  0.559457
0.708363  0.605955  0.58007
0.999323  0.604699  0.559457
0.999323  0.6047  0.559457
0.999323  0.604701  0.559457
0.999323  0.604702  0.559457
0.999323  0.604703  0.559457
0.999323  0.604703  0.559457
0.999323  0.604703  0.559457
0.999323  0.604703  0.559457
0.999323  0.604703  0.559457
0.999323  0.604703  0.559457
0.999323  0.604703  0.559457
0.999323  0.604703  0.559457
0.999323  0.604703  0.559457
0.70837  0.606516  0.580369
0.999323  0.604703  0.559457
0.999323  0.604703  0.559457
0.708406  0.609284  0.58184
0.999323  0.604703  0.559457
1.28023  0.503324  0.527853
0.999323  0.604703  0.559457
0.708471  0.614365  0.584542
0.999323  0.604703  0.559457
0.999323  0.604703  0.559457
0.999323  0.604703  0.559457
0.999323  0.604703  0.559457
0.999323  0.604703  0.559457
0.999323  0.604703  0.559457
1.28023  0.576909  0.527853
1.49103  0.304183  0.493735
0.999323  0.604703  0.559457
0.999323  0.604703  0.559457
1.28023  0.596041  0.527853
0.70903  0.657815  0.607649
1.28023  0.598985  0.527853
1.28023  0.60018  0.527853
1.28023  0.600709  0.527853
1.28023  0.601192  0.527853
0.999323  0.604703  0.559457
1.28023  0.601629  0.527853
1.28023  0.60202  0.527853
1.28023  0.602198  0.527853
1.28023  0.602365  0.527853
1.28023  0.60252  0.527853
1.28023  0.602664  0.527853
1.28023  0.602796  0.527853
1.28023  0.602917  0.527853
1.28023  0.603026  0.527853
1.28023  0.603124  0.527853
1.28023  0.603285  0.527853
1.28023  0.6034  0.527853
1.28023  0.603412  0.527853
1.28023  0.603424  0.527853
1.28023  0.603434  0.527853
1.28023  0.603444  0.527853
1.28023  0.603453  0.527853
1.28023  0.603461  0.527853
1.28023  0.603465  0.527853
1.28023  0.603468  0.527853
1.28023  0.603471  0.527853
1.28023  0.603474  0.527853
1.28023  0.603477  0.527853
1.28023  0.603479  0.527853
1.28023  0.603482  0.527853
1.28023  0.603484  0.527853
1.28023  0.603485  0.527853
1.28023  0.603487  0.527853
1.28023  0.603488  0.527853
1.28023  0.603489  0.527853
1.28023  0.60349  0.527853
1.28023  0.603491  0.527853
1.28023  0.603491  0.527853
1.28023  0.603492  0.527853
1.28023  0.603492  0.527853
1.28023  0.603492  0.527853
1.28023  0.603492  0.527853
1.28023  0.603492  0.527853
0.999333  0.605266  0.559756
1.28023  0.603492  0.527853
1.28023  0.603492  0.527853
1.49103  0.502562  0.493735
1.28023  0.603492  0.527853
0.999384  0.608042  0.561232
1.28023  0.603492  0.527853
1.28023  0.603492  0.527853
0.999477  0.613136  0.563941
1.28023  0.603492  0.527853
1.65571  0.303821  0.459074
1.28023  0.603492  0.527853
1.28023  0.603492  0.527853
1.49103  0.576036  0.493735
1.28023  0.603492  0.527853
1.28023  0.603492  0.527853
1.28023  0.603492  0.527853
1.49103  0.59514  0.493735
1.28023  0.603492  0.527853
1.49103  0.598079  0.493735
0.711218  0.827978  0.698143
1.49103  0.599273  0.493735
1.49103  0.599801  0.493735
1.49103  0.600283  0.493735
1.28023  0.603492  0.527853
1.49103  0.600719  0.493735
1.49103  0.601109  0.493735
1.49103  0.601287  0.493735
1.49103  0.601454  0.493735
1.00027  0.656709  0.587107
1.49103  0.601609  0.493735
1.49103  0.601752  0.493735
1.49103  0.601884  0.493735
1.49103  0.602005  0.493735
1.49103  0.602114  0.493735
1.49103  0.602212  0.493735
1.49103  0.602372  0.493735
1.49103  0.602487  0.493735
1.49103  0.6025  0.493735
1.49103  0.602511  0.493735
1.49103  0.602522  0.493735
1.49103  0.602531  0.493735
1.49103  0.60254  0.493735
1.49103  0.602548  0.493735
1.49103  0.602552  0.493735
1.49103  0.602555  0.493735
1.49103  0.602558  0.493735
1.49103  0.602561  0.493735
1.28023  0.603492  0.527853
1.49103  0.602564  0.493735
1.49103  0.602567  0.493735
1.49103  0.602569  0.493735
1.49103  0.602571  0.493735
1.49103  0.602573  0.493735
1.49103  0.602574  0.493735
1.49103  0.602576  0.493735
1.49103  0.602577  0.493735
1.49103  0.602578  0.493735
1.49103  0.602578  0.493735
1.49103  0.602579  0.493735
1.49103  0.602579  0.493735
1.49103  0.602579  0.493735
1.49103  0.602579  0.493735
1.65571  0.501965  0.459074
1.49103  0.602579  0.493735
1.28023  0.603492  0.527853
1.49103  0.602579  0.493735
1.49103  0.602579  0.493735
1.49103  0.602579  0.493735
1.80159  0.303498  0.421265
1.49103  0.602579  0.493735
1.49103  0.602579  0.493735
1.28025  0.604056  0.528156
1.49103  0.602579  0.493735
1.65571  0.575351  0.459074
1.49103  0.602579  0.493735
1.28031  0.606839  0.529648
1.49103  0.602579  0.493735
1.49103  0.602579  0.493735
1.49103  0.602579  0.493735
1.28043  0.611948  0.532387
1.65571  0.594432  0.459074
1.49103  0.602579  0.493735
1.65571  0.597367  0.459074
1.65571  0.59856  0.459074
1.65571  0.599087  0.459074
1.65571  0.599569  0.459074
1.65571  0.600005  0.459074
1.49103  0.602579  0.493735
1.65571  0.600395  0.459074
1.65571  0.600572  0.459074
1.65571  0.600739  0.459074
1.65571  0.600893  0.459074
1.65571  0.601037  0.459074
1.65571  0.601169  0.459074
1.65571  0.601289  0.459074
1.65571  0.601398  0.459074
1.65571  0.601495  0.459074
1.49103  0.602579  0.493735
1.65571  0.601656  0.459074
1.65571  0.601771  0.459074
1.65571  0.601783  0.459074
1.65571  0.601795  0.459074
1.80159  0.501432  0.421265
1.65571  0.601805  0.459074
1.65571  0.601815  0.459074
1.65571  0.601824  0.459074
1.65571  0.601832  0.459074
1.65571  0.601835  0.459074
1.65571  0.601839  0.459074
1.65571  0.601842  0.459074
1.65571  0.601845  0.459074
1.65571  0.601847  0.459074
1.65571  0.60185  0.459074
1.65571  0.601852  0.459074
1.65571  0.601854  0.459074
1.65571  0.601856  0.459074
1.65571  0.601858  0.459074
1.65571  0.601859  0.459074
1.65571  0.60186  0.459074
1.65571  0.601861  0.459074
1.65571  0.601862  0.459074
1.65571  0.601862  0.459074
1.65571  0.601862  0.459074
1.65571  0.601862  0.459074
1.65571  0.601862  0.459074
1.49103  0.602579  0.493735
1.65571  0.601862  0.459074
1.00339  0.827352  0.677835
1.65571  0.601862  0.459074
1.49103  0.602579  0.493735
1.65571  0.601862  0.459074
1.95113  0.303166  0.37543
1.65571  0.601862  0.459074
1.49103  0.602579  0.493735
1.65571  0.601862  0.459074
1.28147  0.655639  0.55581
1.65571  0.601862  0.459074
1.80159  0.574741  0.421265
1.65571  0.601862  0.459074
1.65571  0.601862  0.459074
0.71393  1.03888  0.810302
1.49105  0.603144  0.494042
1.65571  0.601862  0.459074
1.80159  0.593801  0.421265
1.80159  0.596733  0.421265
1.65571  0.601862  0.459074
1.65571  0.601862  0.459074
1.80159  0.597925  0.421265
1.80159  0.598452  0.421265
1.80159  0.598933  0.421265
1.49113  0.605933  0.495558
1.80159  0.599368  0.421265
1.80159  0.599757  0.421265
1.65571  0.601862  0.459074
1.80159  0.599935  0.421265
1.80159  0.600101  0.421265
1.80159  0.600256  0.421265
1.80159  0.600399  0.421265
1.80159  0.600531  0.421265
1.80159  0.600651  0.421265
1.80159  0.60076  0.421265
1.80159  0.600857  0.421265
1.80159  0.601017  0.421265
1.80159  0.601132  0.421265
1.80159  0.601144  0.421265
1.65571  0.601862  0.459074
1.80159  0.601156  0.421265
1.95113  0.500882  0.37543
1.80159  0.601167  0.421265
1.80159  0.601176  0.421265
1.80159  0.601185  0.421265
1.80159  0.601193  0.421265
1.80159  0.601197  0.421265
1.80159  0.6012  0.421265
1.80159  0.601203  0.421265
1.80159  0.601206  0.421265
1.80159  0.601209  0.421265
1.80159  0.601211  0.421265
1.80159  0.601214  0.421265
1.80159  0.601216  0.421265
1.80159  0.601217  0.421265
1.80159  0.601219  0.421265
1.80159  0.60122  0.421265
1.80159  0.601221  0.421265
1.80159  0.601222  0.421265
1.80159  0.601223  0.421265
1.80159  0.601223  0.421265
1.80159  0.601224  0.421265
1.80159  0.601224  0.421265
1.49127  0.611052  0.49834
1.80159  0.601224  0.421265
1.65571  0.601862  0.459074
1.80159  0.601224  0.421265
0.714072  1.04988  0.816153
1.80159  0.601224  0.421265
1.65571  0.601862  0.459074
0.714073  1.04997  0.816203
0.714073  1.05  0.816214
0.714073  1.05  0.816216
1.80159  0.601224  0.421265
0.714073  1.05  0.816216
2.10961  0.30281  0.32023
0.714073  1.05  0.816216
1.80159  0.601224  0.421265
1.65571  0.601862  0.459074
1.80159  0.601224  0.421265
0.714073  1.05  0.816216
1.80159  0.601224  0.421265
1.65571  0.601862  0.459074
1.95113  0.574111  0.37543
1.80159  0.601224  0.421265
1.80159  0.601224  0.421265
0.714073  1.05  0.816216
1.80159  0.601224  0.421265
1.4925  0.654833  0.522131
1.95113  0.59315  0.37543
1.28553  0.826746  0.647544
1.95113  0.596079  0.37543
1.80159  0.601224  0.421265
1.65573  0.602429  0.459386
1.80159  0.601224  0.421265
1.95113  0.597269  0.37543
1.95113  0.597795  0.37543
1.95113  0.598276  0.37543
1.95113  0.598711  0.37543
1.95113  0.5991  0.37543
1.80159  0.601224  0.421265
1.95113  0.599277  0.37543
1.95113  0.599443  0.37543
1.95113  0.599597  0.37543
1.95113  0.599741  0.37543
1.95113  0.599872  0.37543
1.95113  0.599992  0.37543
1.95113  0.600101  0.37543
1.95113  0.600198  0.37543
1.95113  0.600358  0.37543
1.95113  0.600473  0.37543
1.65582  0.605222  0.460929
1.95113  0.600485  0.37543
1.80159  0.601224  0.421265
1.95113  0.600497  0.37543
2.10961  0.500295  0.32023
1.95113  0.600507  0.37543
1.95113  0.600517  0.37543
1.95113  0.600526  0.37543
1.95113  0.600534  0.37543
1.95113  0.600537  0.37543
1.95113  0.600541  0.37543
1.95113  0.600544  0.37543
1.95113  0.600547  0.37543
1.95113  0.60055  0.37543
1.95113  0.600552  0.37543
1.95113  0.600554  0.37543
1.95113  0.600556  0.37543
1.95113  0.600558  0.37543
1.95113  0.60056  0.37543
1.95113  0.600561  0.37543
1.95113  0.600562  0.37543
1.95113  0.600563  0.37543
1.95113  0.600564  0.37543
1.95113  0.600564  0.37543
1.95113  0.600564  0.37543
1.95113  0.600564  0.37543
1.95113  0.600564  0.37543
1.80159  0.601224  0.421265
1.95113  0.600564  0.37543
1.00726  1.03885  0.790284
1.65598  0.610349  0.46376
1.95113  0.600564  0.37543
1.80159  0.601224  0.421265
1.95113  0.600564  0.37543
1.95113  0.600564  0.37543
1.80159  0.601224  0.421265
1.95113  0.600564  0.37543
1.95113  0.600564  0.37543
1.80159  0.601224  0.421265
2.10961  0.573438  0.32023
1.95113  0.600564  0.37543
0.714073  1.05  0.816216
1.95113  0.600564  0.37543
1.00746  1.04988  0.79615
1.00746  1.04997  0.7962
1.00746  1.05  0.796211
1.00746  1.05  0.796213
1.00746  1.05  0.796213
1.95113  0.600564  0.37543
2.10961  0.592455  0.32023
1.00746  1.05  0.796213
2.10961  0.595381  0.32023
1.95113  0.600564  0.37543
1.80161  0.601791  0.421584
2.3773  0.302207  0.223388
1.95113  0.600564  0.37543
2.10961  0.596569  0.32023
1.65737  0.6542  0.487971
2.10961  0.597095  0.32023
2.10961  0.597575  0.32023
1.00746  1.05  0.796213
2.10961  0.598009  0.32023
2.10961  0.598398  0.32023
1.95113  0.600564  0.37543
2.10961  0.598575  0.32023
2.10961  0.598741  0.32023
2.10961  0.598895  0.32023
2.10961  0.599038  0.32023
2.10961  0.599169  0.32023
2.10961  0.599289  0.32023
2.10961  0.599398  0.32023
2.10961  0.599495  0.32023
2.10961  0.599655  0.32023
2.10961  0.599769  0.32023
1.80171  0.604588  0.423157
2.10961  0.599782  0.32023
1.95113  0.600564  0.37543
2.10961  0.599793  0.32023
2.10961  0.599804  0.32023
2.10961  0.599813  0.32023
2.10961  0.599822  0.32023
2.10961  0.59983  0.32023
2.10961  0.599834  0.32023
2.10961  0.599837  0.32023
2.10961  0.59984  0.32023
2.10961  0.599843  0.32023
2.10961  0.599846  0.32023
2.10961  0.599848  0.32023
2.10961  0.599851  0.32023
2.10961  0.599853  0.32023
2.10961  0.599854  0.32023
2.10961  0.599856  0.32023
2.10961  0.599857  0.32023
2.10961  0.599858  0.32023
2.10961  0.599859  0.32023
2.10961  0.59986  0.32023
2.10961  0.59986  0.32023
2.10961  0.599861  0.32023
2.10961  0.599861  0.32023
2.10961  0.599861  0.32023
1.95113  0.600564  0.37543
1.49731  0.826289  0.615306
2.10961  0.599861  0.32023
1.00746  1.05  0.796213
1.80189  0.609723  0.426044
2.10961  0.599861  0.32023
1.95113  0.600564  0.37543
2.10961  0.599861  0.32023
2.10961  0.599861  0.32023
1.95113  0.600564  0.37543
2.10961  0.599861  0.32023
2.10961  0.599861  0.32023
1.95113  0.600564  0.37543
2.10961  0.599861  0.32023
2.3773  0.499299  0.223388
2.10961  0.599861  0.32023
2.10961  0.599861  0.32023
1.29057  1.03882  0.761239
2.54899  0.30182  0.16718
2.10961  0.599861  0.32023
1.95115  0.601132  0.375757
2.10961  0.599861  0.32023
1.80343  0.653636  0.450739
2.10961  0.599861  0.32023
1.95126  0.603934  0.377368
2.10961  0.599861  0.32023
0.718822  1.05  1.00803
2.3773  0.572295  0.223388
1.00746  1.05  0.796213
2.10961  0.599861  0.32023
1.95146  0.609076  0.380326
2.10961  0.599861  0.32023
1.66281  0.825931  0.58279
1.29083  1.04988  0.76717
1.29083  1.04997  0.767221
1.29083  1.05  0.767232
1.29083  1.05  0.767234
1.29083  1.05  0.767234
2.3773  0.591275  0.223388
2.10961  0.599861  0.32023
1.29083  1.05  0.767234
2.64927  0.301594  0.138814
2.3773  0.594195  0.223388
2.3773  0.595381  0.223388
2.3773  0.595905  0.223388
2.3773  0.596384  0.223388
2.3773  0.596818  0.223388
2.3773  0.597206  0.223388
2.10961  0.599861  0.32023
1.29083  1.05  0.767234
2.3773  0.597382  0.223388
2.3773  0.597548  0.223388
2.3773  0.597702  0.223388
2.3773  0.597844  0.223388
2.3773  0.597976  0.223388
2.3773  0.598095  0.223388
2.3773  0.598204  0.223388
2.3773  0.598301  0.223388
2.54899  0.498659  0.16718
2.3773  0.59846  0.223388
2.3773  0.598574  0.223388
2.3773  0.598587  0.223388
2.3773  0.598598  0.223388
2.3773  0.598609  0.223388
2.3773  0.598618  0.223388
2.3773  0.598627  0.223388
2.3773  0.598635  0.223388
2.3773  0.598639  0.223388
2.3773  0.598642  0.223388
2.3773  0.598645  0.223388
2.3773  0.598648  0.223388
2.3773  0.598651  0.223388
2.3773  0.598653  0.223388
2.3773  0.598656  0.223388
2.3773  0.598658  0.223388
2.3773  0.598659  0.223388
2.3773  0.598661  0.223388
2.3773  0.598662  0.223388
2.3773  0.598663  0.223388
2.3773  0.598664  0.223388
2.3773  0.598665  0.223388
2.3773  0.598665  0.223388
2.3773  0.598666  0.223388
2.3773  0.598666  0.223388
2.3773  0.598666  0.223388
2.3773  0.598666  0.223388
1.29083  1.05  0.767234
2.3773  0.598666  0.223388
2.3773  0.598666  0.223388
2.10964  0.60043  0.320566
1.95318  0.653053  0.405622
2.3773  0.598666  0.223388
2.3773  0.598666  0.223388
2.10976  0.603235  0.322224
2.3773  0.598666  0.223388
2.54899  0.571562  0.16718
1.50328  1.03879  0.730788
2.3773  0.598666  0.223388
2.64927  0.498285  0.138814
2.78497  0.301289  0.10678
2.10999  0.608385  0.325267
2.3773  0.598666  0.223388
1.80948  0.825612  0.547451
2.54899  0.590517  0.16718
2.3773  0.598666  0.223388
2.54899  0.593433  0.16718
2.54899  0.594618  0.16718
2.3773  0.598666  0.223388
2.54899  0.595142  0.16718
2.3773  0.598666  0.223388
2.54899  0.59562  0.16718
2.54899  0.596053  0.16718
2.54899  0.59644  0.16718
2.54899  0.596617  0.16718
2.54899  0.596782  0.16718
2.54899  0.596936  0.16718
2.54899  0.597078  0.16718
2.3773  0.598666  0.223388
1.01433  1.05  0.992627
2.54899  0.597209  0.16718
2.54899  0.597329  0.16718
2.54899  0.597437  0.16718
2.54899  0.597534  0.16718
2.54899  0.597693  0.16718
2.54899  0.597807  0.16718
2.54899  0.597819  0.16718
2.54899  0.597831  0.16718
2.54899  0.597841  0.16718
2.54899  0.597851  0.16718
2.54899  0.59786  0.16718
2.54899  0.597868  0.16718
2.54899  0.597871  0.16718
2.54899  0.597875  0.16718
2.54899  0.597878  0.16718
2.54899  0.597881  0.16718
2.54899  0.597883  0.16718
2.54899  0.597886  0.16718
2.54899  0.597888  0.16718
2.54899  0.59789  0.16718
2.54899  0.597892  0.16718
2.54899  0.597894  0.16718
2.54899  0.597895  0.16718
2.54899  0.597896  0.16718
2.54899  0.597897  0.16718
2.54899  0.597898  0.16718
2.54899  0.597898  0.16718
2.54899  0.597898  0.16718
2.3773  0.598666  0.223388
1.50359  1.04988  0.736812
2.54899  0.597898  0.16718
1.5036  1.04997  0.736864
2.64927  0.571134  0.138814
2.54899  0.597898  0.16718
1.5036  1.05  0.736875
1.5036  1.05  0.736877
1.5036  1.05  0.736877
2.3773  0.598666  0.223388
2.54899  0.597898  0.16718
1.29083  1.05  0.767234
1.5036  1.05  0.736877
2.54899  0.597898  0.16718
2.3773  0.598666  0.223388
2.54899  0.597898  0.16718
2.90733  0.301014  0.0835043
1.5036  1.05  0.736877
2.1119  0.652432  0.351293
2.64927  0.590075  0.138814
2.54899  0.597898  0.16718
2.78497  0.497781  0.10678
2.64927  0.592989  0.138814
2.3773  0.598666  0.223388
2.54899  0.597898  0.16718
2.64927  0.594172  0.138814
2.64927  0.594696  0.138814
2.64927  0.595174  0.138814
2.64927  0.595607  0.138814
2.54899  0.597898  0.16718
2.64927  0.595994  0.138814
2.64927  0.59617  0.138814
2.64927  0.596335  0.138814
2.64927  0.596489  0.138814
2.64927  0.596631  0.138814
2.64927  0.596762  0.138814
1.5036  1.05  0.736877
2.3773  0.598666  0.223388
2.64927  0.596881  0.138814
2.64927  0.59699  0.138814
2.64927  0.597086  0.138814
2.54899  0.597898  0.16718
2.64927  0.597246  0.138814
2.64927  0.597359  0.138814
2.64927  0.597372  0.138814
2.64927  0.597383  0.138814
2.64927  0.597394  0.138814
2.64927  0.597404  0.138814
2.64927  0.597412  0.138814
2.64927  0.59742  0.138814
2.64927  0.597424  0.138814