 VARIABLES = X Y Z
 ZONE N = 83, E = 84, DATAPACKING= POINT, ZONETYPE= FETRIANGLE
0  1.05  1.8
0  -1.05  1.8
15  0  2
6.956  -1.05  1.89275
9.27705  -1.05  1.92369
11.1919  -1.04053  1.94923
12.1837  -1.00572  1.96245
12.9671  -0.948644  1.97289
13.273  -0.915632  1.97697
13.5419  -0.879776  1.98056
13.7353  -0.848486  1.98314
13.8722  -0.821025  1.98496
13.9718  -0.795899  1.98629
14.0544  -0.770657  1.98739
14.1236  -0.745892  1.98831
14.2006  -0.714232  1.98934
14.2817  -0.676113  1.99042
14.364  -0.632785  1.99152
14.4462  -0.585003  1.99262
14.5272  -0.533518  1.9937
14.6057  -0.479087  1.99474
14.6805  -0.422461  1.99574
14.7504  -0.364396  1.99667
14.808  -0.311528  1.99744
14.8505  -0.268675  1.99801
14.885  -0.230345  1.99847
14.9101  -0.199615  1.9988
14.931  -0.17152  1.99908
14.9477  -0.146606  1.9993
14.9596  -0.126731  1.99946
14.9692  -0.109108  1.99959
14.9767  -0.0934826  1.99969
14.9827  -0.0796269  1.99977
14.9878  -0.0659811  1.99984
14.9917  -0.0538907  1.99989
14.9945  -0.0431722  1.99993
14.9966  -0.0336637  1.99995
14.9981  -0.0252223  1.99997
14.9991  -0.0168951  1.99999
14.9998  -0.00868592  2
14.9999  -0.00432509  2
15  0  2
6.956  1.05  1.89275
9.27705  1.05  1.92369
11.1919  1.04053  1.94923
12.1837  1.00572  1.96245
12.9671  0.948644  1.97289
13.273  0.915632  1.97697
13.5419  0.879776  1.98056
13.7353  0.848486  1.98314
13.8722  0.821025  1.98496
13.9718  0.795899  1.98629
14.0544  0.770657  1.98739
14.1236  0.745892  1.98831
14.2006  0.714232  1.98934
14.2817  0.676113  1.99042
14.364  0.632785  1.99152
14.4462  0.585003  1.99262
14.5272  0.533518  1.9937
14.6057  0.479087  1.99474
14.6805  0.422461  1.99574
14.7504  0.364396  1.99667
14.808  0.311528  1.99744
14.8505  0.268675  1.99801
14.885  0.230345  1.99847
14.9101  0.199615  1.9988
14.931  0.17152  1.99908
14.9477  0.146606  1.9993
14.9596  0.126731  1.99946
14.9692  0.109108  1.99959
14.9767  0.0934826  1.99969
14.9827  0.0796269  1.99977
14.9878  0.0659811  1.99984
14.9917  0.0538907  1.99989
14.9945  0.0431722  1.99993
14.9966  0.0336637  1.99995
14.9981  0.0252223  1.99997
14.9991  0.0168951  1.99999
14.9998  0.00868592  2
14.9999  0.00432509  2
12.5754  0  1.96767
12.9247  0.476331  1.97233
12.9247  -0.476331  1.97233
40  39  78
40  78  79
41  40  79
41  79  80
26  25  64
3  41  80
4  2  1
3  80  42
4  1  43
27  26  65
13  51  52
27  65  66
13  12  51
18  17  56
81  7  46
19  57  58
5  43  44
82  81  46
5  4  43
82  46  47
82  47  48
82  48  49
83  8  7
83  9  8
83  10  9
83  81  82
83  49  10
6  44  45
83  82  49
83  7  81
28  27  66
6  5  44
28  66  67
19  18  57
20  58  59
7  45  46
29  28  67
14  52  53
29  67  68
7  6  45
14  13  52
20  19  58
30  29  68
30  68  69
21  59  60
31  30  69
31  69  70
21  20  59
15  53  54
22  60  61
32  31  70
32  70  71
15  14  53
33  32  71
33  71  72
22  21  60
23  61  62
16  54  55
23  22  61
34  33  72
34  72  73
35  34  73
35  73  74
24  23  62
24  62  63
11  10  49
11  49  50
16  15  54
36  35  74
17  55  56
36  74  75
37  36  75
37  75  76
25  63  64
25  24  63
38  37  76
38  76  77
12  11  50
12  50  51
39  38  77
17  16  55
18  56  57
39  77  78
26  64  65
 VARIABLES = X Y Z
 ZONE N = 101, E = 190, DATAPACKING= POINT, ZONETYPE= FETRIANGLE
0  0  0.6
0  0  0.6
0  -1.05  1.8
0  -0.609  0.6
0  -0.8295  0.72
0  -1.05  0.84
0  1.05  1.8
0  0.609  0.6
0  0.8295  0.72
0  1.05  0.84
0  0  0.61441
0  0  0.833034
0  0.304497  0.6
0  -0.304497  0.6
0  0.478304  0.789175
0  0.525  0.842705
0  -0.478304  0.789175
0  -0.525  0.842705
0  0.461816  0.603676
0  0.787286  0.839844
0  -0.461816  0.603676
0  0.7875  1.10616
0  0.2625  1.10616
0  -0.787286  0.839844
0  -0.7875  1.10616
0  0.860739  0.803919
0  0.639998  0.825849
0  0.91875  0.879473
0  0.65625  0.920632
0  0.91875  1.39928
0  0.13125  0.84
0  0.39375  0.920632
0  0.65625  1.39928
0  -0.639998  0.825849
0  -0.860739  0.803919
0  -0.13125  0.920632
0  -0.65625  0.920632
0  -0.39375  1.39928
0  -0.91875  0.879473
0  -0.91875  1.39928
0  0.837831  0.829756
0  0.984375  0.84
0  0.853125  0.84
0  0.984375  0.841605
0  0.853125  0.967657
0  0.984375  1.1872
0  0.590625  0.868219
0  0.459375  0.868219
0  0.2625  0.842705
0  0.525  1.10616
0  0.196875  0.868219
0  0.459375  1.23927
0  0  0.842705
0  0.065625  0.999945
0  0.328125  1.58619
0  -0.837831  0.829756
0  -0.328125  0.868219
0  -0.065625  1.23927
0  -0.2625  1.10616
0  -0.984375  0.84
0  -0.590625  0.868219
0  -0.459375  0.999945
0  -0.853125  0.84
0  -0.525  1.10616
0  -0.590625  1.23927
0  -0.984375  0.841605
0  -0.853125  0.967657
0  -0.721875  1.58619
0  -0.984375  1.1872
0  0.958822  0.807212
0  0.885938  0.84
0  1.01719  0.895387
0  0.721875  0.84
0  0.754688  0.840401
0  0.328125  0.868219
0  0.164063  0.84
0  -0.164063  0.84
0  0.0328125  0.891063
0  -0.065625  0.868219
0  0.13125  1.39928
0  -0.958822  0.807212
0  -0.492188  0.891063
0  -0.721875  0.84
0  -0.754688  0.840401
0  -0.885938  0.84
0  -1.01719  0.895387
0  1.03359  0.84341
0  0.803906  0.875593
0  0.705469  0.863103
0  -0.3426  0.836796
0  0.0984375  0.8521
0  -0.114844  0.84
0  -0.246094  0.84
0  -0.705469  0.863103
0  -0.803906  0.875593
0  -1.03359  0.84341
0  0.844922  0.846893
0  -0.0902344  0.841407
0  -0.188672  0.849121
0  -0.287109  0.841407
0  -0.844922  0.846893
75  49  16
76  49  51
76  31  49
76  53  31
77  12  31
41  20  27
41  27  26
42  20  41
78  54  36
43  42  10
78  51  54
79  53  78
43  20  42
79  78  36
80  23  55
80  54  23
80  38  58
80  55  38
80  58  54
45  22  29
81  6  5
81  35  56
81  5  35
81  60  6
81  56  60
46  22  45
82  57  62
82  18  57
82  61  18
46  7  30
82  62  64
46  30  22
82  64  37
82  37  61
83  24  18
83  18  61
83  63  24
48  16  47
84  63  83
49  31  16
50  47  29
50  48  47
85  6  63
50  32  48
50  29  22
85  66  6
85  63  84
85  39  66
50  22  33
86  39  67
86  66  39
86  67  69
86  69  3
52  50  33
87  10  7
87  7  72
52  32  50
87  44  10
52  23  32
13  1  8
87  72  44
14  2  1
88  45  29
14  4  2
88  28  45
89  73  74
89  47  73
54  51  23
14  13  11
89  88  29
14  1  13
89  29  47
89  74  88
55  7  3
90  17  12
55  23  52
15  12  11
90  34  17
90  12  77
90  18  24
55  52  33
90  24  34
55  33  7
91  76  51
91  53  76
91  78  53
91  51  78
56  34  24
56  35  34
17  11  12
92  77  31
92  31  53
93  90  77
93  18  90
93  77  92
58  36  54
19  8  9
19  11  13
19  13  8
59  58  38
19  15  11
94  84  83
59  36  58
19  9  15
94  83  61
59  57  36
94  61  37
95  67  39
21  5  4
21  17  5
60  56  24
21  4  14
95  94  37
21  14  11
95  84  94
21  11  17
95  37  67
96  3  6
96  86  3
96  66  86
96  6  66
97  71  28
62  59  38
97  74  71
62  57  59
97  28  88
97  88  74
98  53  79
63  6  60
98  92  53
99  79  36
99  98  79
63  60  24
99  93  92
99  92  98
64  62  38
99  36  57
100  18  93
26  15  9
100  57  18
100  93  99
100  99  57
27  12  15
101  95  39
101  85  84
65  37  64
27  20  16
101  39  85
27  15  26
101  84  95
65  25  37
65  64  38
67  37  25
68  40  25
68  3  40
68  55  3
68  38  55
68  25  65
68  65  38
31  12  27
69  25  40
31  27  16
69  40  3
69  67  25
70  41  26
70  9  10
70  10  42
70  26  9
70  42  41
71  44  28
33  30  7
33  22  30
71  10  44
71  43  10
72  28  44
72  7  46
35  5  17
72  46  45
35  17  34
72  45  28
73  20  43
73  47  16
73  16  20
74  73  43
74  43  71
75  16  48
75  48  32
75  51  49
75  23  51
75  32  23
 VARIABLES = X Y Z
 ZONE N = 13572, E = 27033, DATAPACKING= POINT, ZONETYPE= FETRIANGLE
0  0  0.6
0  1.05  1.8
0  0.609  0.6
0  0.8295  0.72
0  1.05  0.84
14.8386  0  0.0714286
0.781418  0  0.587462
1.0951  0  0.570482
1.38191  0  0.542835
1.52454  0  0.522898
1.6282  0  0.504651
1.741  0  0.479998
1.84723  0  0.451535
1.94614  0  0.420281
2.04969  0  0.38296
2.42286  0  0.235888
2.55423  0  0.188868
2.65317  0  0.157813
2.77341  0  0.125772
2.88474  0  0.101132
2.99607  0  0.0807429
3.1074  0  0.0640374
3.25583  0  0.0465119
3.42283  0  0.03189
3.64549  0  0.0189033
4.42225  0  0.00277568
6.35913  0  1.49207e-05
12.5597  0  1.97874e-13
13.6007  0  8.61594e-15
14.3077  0  0.00558058
14.4812  0  0.0143058
14.6123  0  0.0264667
14.7035  0  0.0391854
14.7596  0  0.0496571
14.7908  0  0.0568315
14.8174  0  0.064137
14.8321  0  0.0689427
14.837  0  0.0707815
15  0  2
6.956  1.05  1.89275
9.27705  1.05  1.92369
11.1919  1.04053  1.94923
12.1837  1.00572  1.96245
12.9671  0.948644  1.97289
13.273  0.915632  1.97697
13.5419  0.879776  1.98056
13.7353  0.848486  1.98314
13.8722  0.821025  1.98496
13.9718  0.795899  1.98629
14.0544  0.770657  1.98739
14.1236  0.745892  1.98831
14.2006  0.714232  1.98934
14.2817  0.676113  1.99042
14.364  0.632785  1.99152
14.4462  0.585003  1.99262
14.5272  0.533518  1.9937
14.6057  0.479087  1.99474
14.6805  0.422461  1.99574
14.7504  0.364396  1.99667
14.808  0.311528  1.99744
14.8505  0.268675  1.99801
14.885  0.230345  1.99847
14.9101  0.199615  1.9988
14.931  0.17152  1.99908
14.9477  0.146606  1.9993
14.9596  0.126731  1.99946
14.9692  0.109108  1.99959
14.9767  0.0934826  1.99969
14.9827  0.0796269  1.99977
14.9878  0.0659811  1.99984
14.9917  0.0538907  1.99989
14.9945  0.0431722  1.99993
14.9966  0.0336637  1.99995
14.9981  0.0252223  1.99997
14.9991  0.0168951  1.99999
14.9998  0.00868592  2
14.9999  0.00432509  2
14.8726  0  0.0864785
14.9331  0  0.113234
14.9374  0  0.115199
14.9394  0  0.116226
14.9415  0  0.117452
14.9436  0  0.118827
14.9459  0  0.120462
14.9482  0  0.122287
14.9505  0  0.124225
14.9527  0  0.126365
14.9551  0  0.128877
14.9575  0  0.131646
14.96  0  0.13489
14.9625  0  0.138463
14.9648  0  0.141882
14.9669  0  0.145495
14.969  0  0.1493
14.971  0  0.153299
14.9729  0  0.157492
14.9748  0  0.161877
14.9772  0  0.168025
14.9797  0  0.175351
14.9821  0  0.183113
14.9844  0  0.191309
14.9865  0  0.199939
14.989  0  0.212123
14.9916  0  0.226754
14.9938  0  0.242363
14.9963  0  0.264696
14.9983  0  0.291899
14.9995  0  0.321303
15  0  1.20187
0.781418  0.30569  0.587462
0.781418  0.505053  0.587462
0.781418  0.578891  0.587462
0.781418  0.598089  0.587462
0.781418  0.601042  0.587462
0.781418  0.603257  0.587462
0.781418  0.604088  0.587462
0.781418  0.604434  0.587462
0.781418  0.604734  0.587462
0.781418  0.604988  0.587462
0.781418  0.605196  0.587462
0.781418  0.605357  0.587462
0.781418  0.605473  0.587462
0.781418  0.605483  0.587462
0.781418  0.605492  0.587462
0.781418  0.605501  0.587462
1.0951  0.304995  0.570482
0.781418  0.60551  0.587462
0.781418  0.605518  0.587462
0.781418  0.605525  0.587462
0.781418  0.605532  0.587462
0.781418  0.605538  0.587462
0.781418  0.605543  0.587462
0.781418  0.605548  0.587462
0.781418  0.605552  0.587462
0.781418  0.605556  0.587462
0.781418  0.605559  0.587462
0.781418  0.605561  0.587462
0.781418  0.605562  0.587462
0.781418  0.605563  0.587462
0.781418  0.605564  0.587462
0.781418  0.605564  0.587462
0.781418  0.605565  0.587462
0.781418  0.605565  0.587462
0.781418  0.605565  0.587462
0.781418  0.605565  0.587462
0.781418  0.605565  0.587462
0.781418  0.605565  0.587462
0.781418  0.605565  0.587462
0.781418  0.605565  0.587462
0.781418  0.605565  0.587462
0.781418  0.605565  0.587462
0.781418  0.605565  0.587462
0.781418  0.605565  0.587462
0.781418  0.605565  0.587462
0.781418  0.605565  0.587462
0.781418  0.605565  0.587462
0.781418  0.605565  0.587462
0.781418  0.605565  0.587462
0.781418  0.605565  0.587462
0.781418  0.605565  0.587462
0.781418  0.605565  0.587462
1.0951  0.503905  0.570482
0.781418  0.605565  0.587462
0.781418  0.605565  0.587462
0.781418  0.605565  0.587462
0.781418  0.605565  0.587462
0.781418  0.605565  0.587462
0.781418  0.605565  0.587462
0.781418  0.605565  0.587462
1.0951  0.577576  0.570482
0.781418  0.605565  0.587462
0.781418  0.605565  0.587462
1.0951  0.59673  0.570482
1.0951  0.599677  0.570482
0.781418  0.605565  0.587462
1.0951  0.601887  0.570482
1.0951  0.602716  0.570482
1.0951  0.603061  0.570482
1.0951  0.60336  0.570482
1.0951  0.603614  0.570482
1.0951  0.603821  0.570482
0.781418  0.605582  0.587471
1.0951  0.603982  0.570482
1.0951  0.604097  0.570482
1.0951  0.604107  0.570482
1.0951  0.604117  0.570482
0.781418  0.605633  0.587497
1.0951  0.604126  0.570482
1.0951  0.604134  0.570482
1.0951  0.604142  0.570482
1.0951  0.604149  0.570482
1.0951  0.604156  0.570482
1.0951  0.604162  0.570482
1.0951  0.604167  0.570482
1.0951  0.604172  0.570482
1.0951  0.604176  0.570482
1.0951  0.60418  0.570482
1.0951  0.604183  0.570482
1.0951  0.604185  0.570482
1.0951  0.604186  0.570482
0.781418  0.605718  0.587542
1.0951  0.604187  0.570482
1.0951  0.604188  0.570482
1.0951  0.604189  0.570482
1.0951  0.604189  0.570482
1.0951  0.604189  0.570482
1.0951  0.604189  0.570482
1.0951  0.604189  0.570482
1.0951  0.604189  0.570482
0.781418  0.60599  0.587685
1.38191  0.304361  0.542835
1.0951  0.604189  0.570482
0.781418  0.606945  0.588188
1.0951  0.604189  0.570482
1.0951  0.604189  0.570482
1.0951  0.604189  0.570482
1.0951  0.604189  0.570482
0.781418  0.610495  0.590055
1.0951  0.604189  0.570482
1.0951  0.604189  0.570482
1.0951  0.604189  0.570482
1.0951  0.604189  0.570482
0.781418  0.61623  0.593072
1.0951  0.604189  0.570482
1.0951  0.604189  0.570482
1.0951  0.604189  0.570482
1.0951  0.604189  0.570482
1.0951  0.604189  0.570482
1.0951  0.604189  0.570482
1.0951  0.604189  0.570482
0.781418  0.634259  0.602556
1.38191  0.502857  0.542835
1.0951  0.604189  0.570482
1.0951  0.604189  0.570482
1.0951  0.604189  0.570482
1.0951  0.604189  0.570482
1.52454  0.304045  0.522898
1.0951  0.604189  0.570482
0.781418  0.661032  0.616639
1.0951  0.604189  0.570482
1.0951  0.604189  0.570482
1.38191  0.576374  0.542835
1.0951  0.604189  0.570482
1.0951  0.604189  0.570482
1.38191  0.595489  0.542835
1.38191  0.598429  0.542835
1.38191  0.600635  0.542835
1.38191  0.601462  0.542835
1.0951  0.604206  0.570491
1.38191  0.601806  0.542835
1.0951  0.604257  0.570518
1.38191  0.602105  0.542835
1.38191  0.602358  0.542835
1.0951  0.604342  0.570563
1.38191  0.602565  0.542835
1.6282  0.303816  0.504651
1.38191  0.602725  0.542835
1.52454  0.502336  0.522898
1.0951  0.604616  0.570706
0.781418  0.739623  0.657979
1.38191  0.60284  0.542835
1.38191  0.60285  0.542835
1.38191  0.60286  0.542835
1.38191  0.602869  0.542835
1.38191  0.602877  0.542835
1.38191  0.602885  0.542835
1.38191  0.602892  0.542835
1.38191  0.602899  0.542835
1.38191  0.602905  0.542835
1.38191  0.60291  0.542835
1.38191  0.602915  0.542835
1.38191  0.602919  0.542835
1.38191  0.602923  0.542835
1.38191  0.602926  0.542835
1.38191  0.602928  0.542835
1.38191  0.602929  0.542835
1.38191  0.60293  0.542835
1.38191  0.602931  0.542835
1.38191  0.602932  0.542835
1.38191  0.602932  0.542835
1.38191  0.602932  0.542835
1.38191  0.602932  0.542835
1.38191  0.602932  0.542835
1.38191  0.602932  0.542835
1.0951  0.605574  0.571207
1.38191  0.602932  0.542835
1.38191  0.602932  0.542835
1.38191  0.602932  0.542835
1.0951  0.609134  0.573071
1.38191  0.602932  0.542835
1.38191  0.602932  0.542835
1.38191  0.602932  0.542835
1.38191  0.602932  0.542835
1.0951  0.614888  0.576083
1.38191  0.602932  0.542835
1.38191  0.602932  0.542835
1.52454  0.575777  0.522898
1.38191  0.602932  0.542835
1.38191  0.602932  0.542835
1.38191  0.602932  0.542835
1.38191  0.602932  0.542835
1.38191  0.602932  0.542835
0.781418  0.827782  0.704353
1.38191  0.602932  0.542835
1.6282  0.501957  0.504651
1.52454  0.594871  0.522898
1.0951  0.632972  0.585551
1.38191  0.602932  0.542835
1.741  0.303566  0.479998
1.52454  0.597809  0.522898
1.38191  0.602932  0.542835
1.52454  0.600012  0.522898
1.38191  0.602932  0.542835
1.52454  0.600838  0.522898
1.52454  0.601182  0.522898
1.52454  0.601481  0.522898
1.52454  0.601733  0.522898
1.38191  0.602932  0.542835
1.52454  0.60194  0.522898
1.52454  0.6021  0.522898
1.52454  0.602215  0.522898
1.52454  0.602225  0.522898
1.52454  0.602235  0.522898
1.52454  0.602244  0.522898
1.52454  0.602252  0.522898
1.52454  0.60226  0.522898
1.52454  0.602267  0.522898
1.52454  0.602274  0.522898
1.52454  0.60228  0.522898
1.52454  0.602285  0.522898
1.52454  0.60229  0.522898
1.52454  0.602294  0.522898
1.52454  0.602298  0.522898
1.52454  0.602301  0.522898
1.52454  0.602303  0.522898
1.52454  0.602304  0.522898
1.52454  0.602305  0.522898
1.52454  0.602306  0.522898
1.52454  0.602306  0.522898
1.52454  0.602307  0.522898
1.52454  0.602307  0.522898
1.52454  0.602307  0.522898
1.38191  0.602932  0.542835
1.52454  0.602307  0.522898
1.52454  0.602307  0.522898
1.0951  0.659828  0.599611
1.52454  0.602307  0.522898
1.38191  0.602932  0.542835
1.52454  0.602307  0.522898
1.38191  0.602932  0.542835
1.52454  0.602307  0.522898
1.6282  0.575342  0.504651
1.52454  0.602307  0.522898
1.52454  0.602307  0.522898
1.38191  0.602932  0.542835
1.52454  0.602307  0.522898
1.52454  0.602307  0.522898
1.52454  0.602307  0.522898
1.38191  0.602932  0.542835
1.52454  0.602307  0.522898
1.6282  0.594422  0.504651
1.52454  0.602307  0.522898
1.52454  0.602307  0.522898
1.84723  0.303331  0.451535
1.741  0.501544  0.479998
1.6282  0.597358  0.504651
1.38191  0.602932  0.542835
1.52454  0.602307  0.522898
1.6282  0.599559  0.504651
1.52454  0.602307  0.522898
1.6282  0.600385  0.504651
1.6282  0.600729  0.504651
1.52454  0.602307  0.522898
1.6282  0.601027  0.504651
1.6282  0.601279  0.504651
1.6282  0.601486  0.504651
1.52454  0.602307  0.522898
1.6282  0.601646  0.504651
1.6282  0.601761  0.504651
1.6282  0.601771  0.504651
1.6282  0.601781  0.504651
1.6282  0.601789  0.504651
1.6282  0.601798  0.504651
1.6282  0.601806  0.504651
1.6282  0.601813  0.504651
1.38191  0.602949  0.542844
1.6282  0.601819  0.504651
1.6282  0.601825  0.504651
1.6282  0.601831  0.504651
1.6282  0.601836  0.504651
1.6282  0.60184  0.504651
1.6282  0.601843  0.504651
1.6282  0.601846  0.504651
1.6282  0.601848  0.504651
1.6282  0.601849  0.504651
1.6282  0.601851  0.504651
1.0951  0.738663  0.640884
1.6282  0.601851  0.504651
1.6282  0.601852  0.504651
1.6282  0.601852  0.504651
1.6282  0.601853  0.504651
1.38191  0.603  0.542871
1.52454  0.602307  0.522898
1.6282  0.601853  0.504651
1.6282  0.601853  0.504651
1.38191  0.603086  0.542916
1.6282  0.601853  0.504651
1.52454  0.602307  0.522898
1.38191  0.60336  0.54306
1.6282  0.601853  0.504651
1.52454  0.602307  0.522898
1.6282  0.601853  0.504651
1.38191  0.604321  0.543566
1.52454  0.602307  0.522898
1.6282  0.601853  0.504651
1.6282  0.601853  0.504651
1.52454  0.602307  0.522898
1.741  0.574869  0.479998
1.6282  0.601853  0.504651
1.38191  0.607891  0.545444
1.6282  0.601853  0.504651
1.52454  0.602307  0.522898
1.6282  0.601853  0.504651
1.6282  0.601853  0.504651
1.52454  0.602307  0.522898
1.6282  0.601853  0.504651
1.94614  0.303112  0.420281
1.6282  0.601853  0.504651
1.38191  0.613661  0.548479
1.6282  0.601853  0.504651
1.84723  0.501155  0.451535
1.741  0.593934  0.479998
1.52454  0.602307  0.522898
1.6282  0.601853  0.504651
1.741  0.596867  0.479998
1.6282  0.601853  0.504651
1.6282  0.601853  0.504651
1.741  0.599066  0.479998
1.0951  0.827095  0.687181
1.52454  0.602307  0.522898
1.6282  0.601853  0.504651
1.741  0.599891  0.479998
1.741  0.600235  0.479998
1.741  0.600533  0.479998
1.741  0.600785  0.479998
1.6282  0.601853  0.504651
1.741  0.600991  0.479998
1.741  0.601152  0.479998
1.741  0.601266  0.479998
1.741  0.601276  0.479998
1.741  0.601286  0.479998
1.741  0.601295  0.479998
1.741  0.601303  0.479998
1.741  0.601311  0.479998
1.741  0.601318  0.479998
1.741  0.601325  0.479998
1.741  0.601331  0.479998
1.741  0.601336  0.479998
1.741  0.601341  0.479998
1.741  0.601345  0.479998
1.741  0.601349  0.479998
1.6282  0.601853  0.504651
1.52454  0.602307  0.522898
1.741  0.601352  0.479998
1.741  0.601354  0.479998
1.741  0.601355  0.479998
1.741  0.601356  0.479998
1.741  0.601357  0.479998
1.741  0.601357  0.479998
1.741  0.601358  0.479998
1.741  0.601358  0.479998
1.741  0.601358  0.479998
1.38191  0.631797  0.558019
1.741  0.601358  0.479998
1.741  0.601358  0.479998
1.6282  0.601853  0.504651
1.741  0.601358  0.479998
1.6282  0.601853  0.504651
0.781418  1.04043  0.816211
1.741  0.601358  0.479998
1.52454  0.602324  0.522907
1.52454  0.602375  0.522934
1.6282  0.601853  0.504651
1.52454  0.602461  0.522979
1.741  0.601358  0.479998
1.84723  0.574424  0.451535
1.52454  0.602735  0.523125
1.741  0.601358  0.479998
1.6282  0.601853  0.504651
1.741  0.601358  0.479998
1.741  0.601358  0.479998
2.04969  0.302882  0.38296
1.52454  0.603698  0.523634
1.38191  0.658728  0.572185
1.6282  0.601853  0.504651
1.741  0.601358  0.479998
0.781418  1.04735  0.81985
1.94614  0.500793  0.420281
1.741  0.601358  0.479998
1.741  0.601358  0.479998
1.84723  0.593473  0.451535
1.6282  0.601853  0.504651
1.741  0.601358  0.479998
1.52454  0.607273  0.525528
1.741  0.601358  0.479998
1.84723  0.596404  0.451535
1.741  0.601358  0.479998
1.84723  0.598602  0.451535
1.741  0.601358  0.479998
1.6282  0.601853  0.504651
0.781418  1.04997  0.82123
0.781418  1.04999  0.821241
1.84723  0.599427  0.451535
0.781418  1.05  0.821244
0.781418  1.05  0.821244
1.741  0.601358  0.479998
0.781418  1.05  0.821244
1.84723  0.59977  0.451535
1.84723  0.600068  0.451535
1.52454  0.613051  0.528588
0.781418  1.05  0.821244
1.84723  0.600319  0.451535
1.741  0.601358  0.479998
1.84723  0.600526  0.451535
1.84723  0.600686  0.451535
1.84723  0.6008  0.451535
1.84723  0.60081  0.451535
1.84723  0.60082  0.451535
0.781418  1.05  0.821244
1.84723  0.600829  0.451535
1.84723  0.600837  0.451535
1.84723  0.600845  0.451535
1.84723  0.600852  0.451535
1.84723  0.600859  0.451535
1.6282  0.601853  0.504651
1.84723  0.600865  0.451535
1.84723  0.60087  0.451535
1.84723  0.600875  0.451535
1.84723  0.600879  0.451535
1.84723  0.600883  0.451535
1.84723  0.600886  0.451535
1.741  0.601358  0.479998
1.84723  0.600888  0.451535
1.84723  0.600889  0.451535
1.84723  0.60089  0.451535
1.84723  0.600891  0.451535
1.84723  0.600891  0.451535
1.84723  0.600892  0.451535
1.84723  0.600892  0.451535
1.84723  0.600892  0.451535
1.84723  0.600892  0.451535
1.84723  0.600892  0.451535
1.741  0.601358  0.479998
1.84723  0.600892  0.451535
0.781418  1.05  0.821244
1.741  0.601358  0.479998
1.84723  0.600892  0.451535
1.94614  0.574009  0.420281
1.6282  0.601869  0.50466
1.741  0.601358  0.479998
1.6282  0.601921  0.504687
1.6282  0.602007  0.504733
1.84723  0.600892  0.451535
1.6282  0.602281  0.50488
1.741  0.601358  0.479998
1.84723  0.600892  0.451535
1.52454  0.631212  0.538208
1.38191  0.737785  0.613771
1.84723  0.600892  0.451535
1.6282  0.603244  0.505394
1.84723  0.600892  0.451535
2.04969  0.500415  0.38296
0.781418  1.05  0.821244
1.741  0.601358  0.479998
1.84723  0.600892  0.451535
1.94614  0.593045  0.420281
1.84723  0.600892  0.451535
1.741  0.601358  0.479998
1.84723  0.600892  0.451535
1.94614  0.595973  0.420281
1.84723  0.600892  0.451535
1.6282  0.606824  0.507304
1.84723  0.600892  0.451535
1.94614  0.59817  0.420281
1.741  0.601358  0.479998
1.94614  0.598994  0.420281
1.84723  0.600892  0.451535
1.94614  0.599337  0.420281
1.52454  0.658181  0.552492
1.94614  0.599634  0.420281
1.84723  0.600892  0.451535
1.94614  0.599886  0.420281
1.94614  0.600092  0.420281
1.94614  0.600252  0.420281
1.84723  0.600892  0.451535
1.94614  0.600366  0.420281
1.94614  0.600377  0.420281
1.94614  0.600386  0.420281
1.94614  0.600395  0.420281
1.94614  0.600403  0.420281
1.6282  0.612607  0.510391
1.94614  0.600411  0.420281
1.94614  0.600418  0.420281
1.94614  0.600425  0.420281
1.94614  0.600431  0.420281
1.94614  0.600436  0.420281
1.741  0.601358  0.479998
1.94614  0.600441  0.420281
1.94614  0.600445  0.420281
1.94614  0.600449  0.420281
1.94614  0.600452  0.420281
1.94614  0.600454  0.420281
1.94614  0.600455  0.420281
1.94614  0.600456  0.420281
1.94614  0.600457  0.420281
1.94614  0.600457  0.420281
1.94614  0.600458  0.420281
1.94614  0.600458  0.420281
1.94614  0.600458  0.420281
1.84723  0.600892  0.451535
1.94614  0.600458  0.420281
1.94614  0.600458  0.420281
1.84723  0.600892  0.451535
1.94614  0.600458  0.420281
1.741  0.601358  0.479998
1.84723  0.600892  0.451535
1.94614  0.600458  0.420281
2.04969  0.573575  0.38296
1.84723  0.600892  0.451535
1.94614  0.600458  0.420281
1.84723  0.600892  0.451535
1.94614  0.600458  0.420281
1.38191  0.826466  0.660419
1.94614  0.600458  0.420281
1.741  0.601375  0.480007
1.741  0.601426  0.480035
1.6282  0.630787  0.520094
1.84723  0.600892  0.451535
1.94614  0.600458  0.420281
1.741  0.601512  0.480081
1.94614  0.600458  0.420281
1.741  0.601787  0.48023
2.04969  0.592596  0.38296
1.94614  0.600458  0.420281
1.84723  0.600892  0.451535
1.94614  0.600458  0.420281
1.741  0.602751  0.48075
2.04969  0.595523  0.38296
1.0951  1.0404  0.798855
1.94614  0.600458  0.420281
1.84723  0.600892  0.451535
1.94614  0.600458  0.420281
2.04969  0.597717  0.38296
2.04969  0.59854  0.38296
1.94614  0.600458  0.420281
2.04969  0.598883  0.38296
1.52454  0.737348  0.594424
2.04969  0.599181  0.38296
0.781418  1.05  0.821244
1.94614  0.600458  0.420281
2.04969  0.599432  0.38296
1.84723  0.600892  0.451535
2.04969  0.599638  0.38296
1.741  0.606335  0.482685
2.04969  0.599798  0.38296
1.94614  0.600458  0.420281
2.04969  0.599912  0.38296
1.6282  0.657783  0.534502
2.04969  0.599922  0.38296
2.04969  0.599932  0.38296
2.04969  0.599941  0.38296
2.04969  0.599949  0.38296
2.04969  0.599957  0.38296
2.04969  0.599964  0.38296
2.04969  0.599971  0.38296
2.04969  0.599977  0.38296
2.04969  0.599982  0.38296
2.04969  0.599987  0.38296
2.04969  0.599991  0.38296
2.04969  0.599994  0.38296
2.04969  0.599997  0.38296
2.04969  0.599999  0.38296
2.04969  0.6  0.38296
2.04969  0.600002  0.38296
2.04969  0.600002  0.38296
2.04969  0.600003  0.38296
2.04969  0.600003  0.38296
2.04969  0.600004  0.38296
2.04969  0.600004  0.38296
1.94614  0.600458  0.420281
2.04969  0.600004  0.38296
2.04969  0.600004  0.38296
1.0951  1.04734  0.802487
1.84723  0.600892  0.451535
1.94614  0.600458  0.420281
2.04969  0.600004  0.38296
1.741  0.612124  0.485811
1.94614  0.600458  0.420281
2.04969  0.600004  0.38296
1.94614  0.600458  0.420281
1.84723  0.600892  0.451535
2.04969  0.600004  0.38296
1.94614  0.600458  0.420281
2.04969  0.600004  0.38296
1.0951  1.04997  0.803865
1.0951  1.04999  0.803877
2.04969  0.600004  0.38296
1.0951  1.05  0.803879
1.0951  1.05  0.803879
1.0951  1.05  0.803879
1.94614  0.600458  0.420281
2.04969  0.600004  0.38296
1.0951  1.05  0.803879
1.84723  0.600909  0.451545
2.04969  0.600004  0.38296
1.0951  1.05  0.803879
1.84723  0.60096  0.451573
1.84723  0.601046  0.45162
2.04969  0.600004  0.38296
1.94614  0.600458  0.420281
2.04969  0.600004  0.38296
1.84723  0.601322  0.451771
1.741  0.630324  0.495637
2.42286  0.302056  0.235888
2.04969  0.600004  0.38296
1.94614  0.600458  0.420281
1.0951  1.05  0.803879
2.04969  0.600004  0.38296
1.84723  0.602287  0.452299
2.04969  0.600004  0.38296
1.52454  0.826154  0.641462
2.04969  0.600004  0.38296
1.94614  0.600458  0.420281
2.04969  0.600004  0.38296
1.6282  0.737031  0.576799
2.04969  0.600004  0.38296
1.84723  0.605874  0.454264
1.0951  1.05  0.803879
1.94614  0.600458  0.420281
2.04969  0.600004  0.38296
1.741  0.65735  0.510229
2.04969  0.600004  0.38296
2.04969  0.600004  0.38296
1.84723  0.61167  0.457438
1.94614  0.600458  0.420281
2.04969  0.600004  0.38296
2.04969  0.600004  0.38296
1.94614  0.600475  0.420291
1.94614  0.600526  0.42032
1.94614  0.600612  0.420367
2.04969  0.600004  0.38296
1.94614  0.600888  0.420521
2.04969  0.600004  0.38296
1.84723  0.629888  0.467415
1.94614  0.601854  0.421059
2.42286  0.499049  0.235888
2.55423  0.301765  0.188868
2.04969  0.600004  0.38296
1.6282  0.825926  0.624246
0.781418  1.05  1.01232
1.94614  0.605445  0.423057
2.04969  0.600004  0.38296
1.741  0.736685  0.553063
1.84723  0.656942  0.48223
1.94614  0.611246  0.426285
2.04969  0.600004  0.38296
1.38191  1.04038  0.772941
1.0951  1.05  0.803879
2.04969  0.600021  0.382969
2.42286  0.572009  0.235888
2.04969  0.600072  0.382999
2.04969  0.600158  0.383048
2.04969  0.600434  0.383204
2.65317  0.301546  0.157813
1.38191  1.04733  0.776601
1.94614  0.629482  0.436433
2.04969  0.601401  0.383753
2.42286  0.590979  0.235888
2.55423  0.498568  0.188868
2.42286  0.593897  0.235888
2.04969  0.604995  0.385792
1.38191  1.04997  0.777989
2.42286  0.596086  0.235888
1.38191  1.04999  0.778001
1.38191  1.05  0.778003
1.38191  1.05  0.778003
1.38191  1.05  0.778003
1.741  0.825679  0.601112
2.42286  0.596907  0.235888
2.42286  0.597249  0.235888
1.38191  1.05  0.778003
2.42286  0.597545  0.235888
2.42286  0.597796  0.235888
2.42286  0.598001  0.235888
1.84723  0.73636  0.525721
2.42286  0.598161  0.235888
1.38191  1.05  0.778003
1.94614  0.656562  0.451503
2.04969  0.610803  0.389087
2.42286  0.598275  0.235888
2.42286  0.598285  0.235888
2.42286  0.598294  0.235888
2.42286  0.598303  0.235888
2.42286  0.598312  0.235888
2.42286  0.598319  0.235888
2.42286  0.598327  0.235888
2.42286  0.598333  0.235888
2.42286  0.598339  0.235888
2.42286  0.598344  0.235888
2.42286  0.598349  0.235888
2.42286  0.598353  0.235888
2.42286  0.598357  0.235888
2.42286  0.59836  0.235888
2.42286  0.598362  0.235888
2.42286  0.598363  0.235888
2.42286  0.598364  0.235888
2.42286  0.598365  0.235888
2.42286  0.598365  0.235888
2.42286  0.598366  0.235888
2.42286  0.598366  0.235888
2.42286  0.598366  0.235888
2.42286  0.598366  0.235888
2.42286  0.598366  0.235888
1.38191  1.05  0.778003
2.42286  0.598366  0.235888
2.42286  0.598366  0.235888
2.42286  0.598366  0.235888
2.55423  0.571458  0.188868
2.77341  0.301279  0.125772
2.42286  0.598366  0.235888
2.42286  0.598366  0.235888
2.04969  0.629057  0.399444
2.65317  0.498206  0.157813
1.38191  1.05  0.778003
2.42286  0.598366  0.235888
1.52454  1.04036  0.75492
2.42286  0.598366  0.235888
2.42286  0.598366  0.235888
2.42286  0.598366  0.235888
2.55423  0.590409  0.188868
2.42286  0.598366  0.235888
2.42286  0.598366  0.235888
2.55423  0.593325  0.188868