 VARIABLES = X Y Z
 ZONE N = 7289, E = 14497, DATAPACKING= POINT, ZONETYPE= FETRIANGLE
-0.46188  0  1
0  2.1  1.8
-0.46188  1.05  1
-0.34641  1.575  1.2
-0.23094  2.1  1.4
12.8752  0  0.142891
0.137056  0  0.768383
0.706153  0  0.580043
1.24724  0  0.430042
1.76215  0  0.313442
2.25271  0  0.225308
2.72074  0  0.1607
3.16808  0  0.114682
3.73551  0  0.073709
4.54727  0  0.0372579
5.79819  0  0.0139115
8.97949  0  0.00111988
10.8815  0  0.00880705
11.7434  0  0.0437629
12.5591  0  0.108524
15  0  2
13.5898  0  0.232999
13.6902  0  0.248732
13.7798  0  0.266938
13.8357  0  0.281024
13.8864  0  0.296301
13.9237  0  0.309547
13.9544  0  0.322137
13.9739  0  0.331138
13.992  0  0.340437
14.0081  0  0.349538
14.0228  0  0.358758
14.0353  0  0.367526
14.0461  0  0.375843
14.0536  0  0.382206
14.0614  0  0.389287
14.0687  0  0.396706
14.0738  0  0.40236
14.0796  0  0.409332
14.0846  0  0.415888
14.0891  0  0.422541
14.5446  0  1.21125
7.62739  2.09875  1.9017
9.52403  2.07735  1.92699
10.6099  2.03549  1.94147
11.2149  1.98805  1.94953
11.5373  1.94635  1.95383
11.7765  1.90452  1.95702
12.0125  1.85255  1.96017
12.2582  1.78604  1.96344
12.4838  1.71334  1.96645
12.7137  1.62828  1.96952
12.9455  1.53235  1.97261
13.1769  1.42717  1.97569
13.4052  1.31436  1.97874
13.6279  1.19553  1.98171
13.8426  1.07229  1.98457
14.0467  0.946269  1.98729
14.2377  0.819073  1.98984
14.4132  0.69232  1.99218
14.5705  0.567626  1.99427
14.6829  0.469243  1.99577
14.7653  0.389718  1.99687
14.8239  0.327309  1.99765
14.8658  0.27827  1.99821
14.899  0.235417  1.99865
14.9227  0.201671  1.99897
14.9419  0.171244  1.99923
14.9556  0.147207  1.99941
14.9667  0.125458  1.99956
14.9753  0.106316  1.99967
14.982  0.0894501  1.99976
14.9872  0.0745721  1.99983
14.9911  0.061432  1.99988
14.9943  0.0485341  1.99992
14.9966  0.0371374  1.99995
14.9982  0.0270548  1.99998
14.9992  0.0171403  1.99999
14.9998  0.00850221  2
0.137056  0.251837  0.768383
0.137056  0.469197  0.768383
0.137056  0.65208  0.768383
0.137056  0.800486  0.768383
0.137056  0.914415  0.768383
0.137056  0.993867  0.768383
0.706153  0.251837  0.580043
0.137056  1.03884  0.768383
0.137056  1.0484  0.768383
0.137056  1.04899  0.768383
0.137056  1.04944  0.768383
0.137056  1.04962  0.768383
0.137056  1.0497  0.768383
0.137056  1.04976  0.768383
0.137056  1.04982  0.768383
0.137056  1.04985  0.768383
0.137056  1.04987  0.768383
0.137056  1.0499  0.768383
0.137056  1.04992  0.768383
0.137056  1.04993  0.768383
0.137056  1.04995  0.768383
0.137056  1.04996  0.768383
0.137056  1.04997  0.768383
0.137056  1.04999  0.768383
0.137056  1.05  0.768383
0.137056  1.05  0.768383
0.137056  1.05  0.768383
0.706153  0.469197  0.580043
0.137056  1.05  0.768383
0.137056  1.05  0.768383
0.137056  1.05  0.768383
0.706153  0.65208  0.580043
0.137056  1.05  0.768383
0.137056  1.05  0.768383
0.137056  1.05  0.768383
0.706153  0.800486  0.580043
0.137056  1.05  0.768383
0.137056  1.05  0.768383
0.137056  1.05  0.768383
0.137056  1.05  0.768383
0.706153  0.914415  0.580043
0.137056  1.05  0.768383
0.137056  1.05  0.768383
0.137056  1.05  0.768383
0.137056  1.05  0.768383
0.137056  1.05  0.768383
0.706153  0.993867  0.580043
0.137056  1.05  0.768383
0.137056  1.05  0.768383
0.137056  1.05  0.768383
0.137056  1.05  0.768383
0.137056  1.05  0.768383
0.137056  1.05  0.768383
0.137056  1.05  0.768383
1.24724  0.251837  0.430042
0.137056  1.05  0.768383
0.706153  1.03884  0.580043
0.137056  1.05  0.768384
0.137058  1.05001  0.768387
0.137061  1.05002  0.768392
0.137071  1.05005  0.76841
0.137108  1.05018  0.768473
0.137244  1.05066  0.768709
0.137465  1.05143  0.769093
0.706153  1.0484  0.580043
0.706153  1.04899  0.580043
0.706153  1.04944  0.580043
0.706153  1.04962  0.580043
0.706153  1.0497  0.580043
0.706153  1.04976  0.580043
0.706153  1.04982  0.580043
0.706153  1.04985  0.580043
0.706153  1.04987  0.580043
0.706153  1.0499  0.580043
0.706153  1.04992  0.580043
0.706153  1.04993  0.580043
0.706153  1.04995  0.580043
0.706153  1.04996  0.580043
0.706153  1.04997  0.580043
0.706153  1.04999  0.580043
0.706153  1.05  0.580043
0.706153  1.05  0.580043
0.706153  1.05  0.580043
1.24724  0.469197  0.430042
0.1392  1.05749  0.772097
0.706153  1.05  0.580043
0.706153  1.05  0.580043
0.706153  1.05  0.580043
1.24724  0.65208  0.430042
0.706153  1.05  0.580043
0.146746  1.08384  0.785167
0.706153  1.05  0.580043
0.706153  1.05  0.580043
1.24724  0.800486  0.430042
0.706153  1.05  0.580043
0.706153  1.05  0.580043
0.706153  1.05  0.580043
0.706153  1.05  0.580043
1.24724  0.914415  0.430042
0.178145  1.1935  0.839551
0.706153  1.05  0.580043
0.706153  1.05  0.580043
0.706153  1.05  0.580043
0.706153  1.05  0.580043
0.706153  1.05  0.580043
1.24724  0.993867  0.430042
0.706153  1.05  0.580043
0.706153  1.05  0.580043
0.706153  1.05  0.580043
0.706153  1.05  0.580043
0.706153  1.05  0.580043
0.706153  1.05  0.580043
0.706153  1.05  0.580043
1.76215  0.251837  0.313442
0.706153  1.05  0.580043
1.24724  1.03884  0.430042
0.706154  1.05  0.580044
0.706156  1.05001  0.580047
0.706159  1.05002  0.580054
0.706172  1.05005  0.580075
0.706215  1.05018  0.58015
0.706377  1.05066  0.580431
0.70664  1.05143  0.580887
1.24724  1.0484  0.430042
1.24724  1.04899  0.430042
1.24724  1.04944  0.430042
1.24724  1.04962  0.430042
1.24724  1.0497  0.430042
1.24724  1.04976  0.430042
1.24724  1.04982  0.430042
1.24724  1.04985  0.430042
1.24724  1.04987  0.430042
1.24724  1.0499  0.430042
1.24724  1.04992  0.430042
1.24724  1.04993  0.430042
1.24724  1.04995  0.430042
1.24724  1.04996  0.430042
1.24724  1.04997  0.430042
1.24724  1.04999  0.430042
1.24724  1.05  0.430042
1.24724  1.05  0.430042
1.24724  1.05  0.430042
1.76215  0.469197  0.313442
0.708704  1.05749  0.584461
1.24724  1.05  0.430042
1.24724  1.05  0.430042
1.24724  1.05  0.430042
1.76215  0.65208  0.313442
1.24724  1.05  0.430042
0.717681  1.08384  0.600009
0.287378  1.575  1.02875
1.24724  1.05  0.430042
1.24724  1.05  0.430042
1.76215  0.800486  0.313442
1.24724  1.05  0.430042
1.24724  1.05  0.430042
1.24724  1.05  0.430042
1.24724  1.05  0.430042
1.76215  0.914415  0.313442
0.755032  1.1935  0.664704
1.24724  1.05  0.430042
1.24724  1.05  0.430042
1.24724  1.05  0.430042
1.24724  1.05  0.430042
1.24724  1.05  0.430042
1.76215  0.993867  0.313442
1.24724  1.05  0.430042
1.24724  1.05  0.430042
0.379454  1.89658  1.18823
1.24724  1.05  0.430042
1.24724  1.05  0.430042
1.24724  1.05  0.430042
1.24724  1.05  0.430042
1.24724  1.05  0.430042
2.25271  0.251837  0.225308
1.24724  1.05  0.430042
1.76215  1.03884  0.313442
1.24724  1.05  0.430043
1.24724  1.05001  0.430047
1.24725  1.05002  0.430054
1.24726  1.05005  0.430078
1.24731  1.05018  0.430162
1.24749  1.05066  0.430479
1.24779  1.05143  0.430994
1.76215  1.0484  0.313442
1.76215  1.04899  0.313442
1.76215  1.04944  0.313442
1.76215  1.04962  0.313442
1.76215  1.0497  0.313442
1.76215  1.04976  0.313442
1.76215  1.04982  0.313442
1.76215  1.04985  0.313442
1.76215  1.04987  0.313442
1.76215  1.0499  0.313442
1.76215  1.04992  0.313442
1.76215  1.04993  0.313442
1.76215  1.04995  0.313442
1.76215  1.04996  0.313442
1.76215  1.04997  0.313442
1.76215  1.04999  0.313442
1.76215  1.05  0.313442
1.76215  1.05  0.313442
1.76215  1.05  0.313442
2.25271  0.469197  0.225308
1.25012  1.05749  0.435025
1.76215  1.05  0.313442
1.76215  1.05  0.313442
1.76215  1.05  0.313442
2.25271  0.65208  0.225308
1.76215  1.05  0.313442
1.26024  1.08384  0.452562
0.884974  1.575  0.88977
1.76215  1.05  0.313442
0.432594  2.08217  1.28027
1.76215  1.05  0.313442
2.25271  0.800486  0.225308
1.76215  1.05  0.313442
0.436511  2.09585  1.28706
1.76215  1.05  0.313442
1.76215  1.05  0.313442
0.437444  2.09911  1.28867
1.76215  1.05  0.313442
0.437654  2.09984  1.28904
2.25271  0.914415  0.225308
1.30237  1.1935  0.525529
0.4377  2.1  1.28911
1.76215  1.05  0.313442
1.76215  1.05  0.313442
1.76215  1.05  0.313442
1.76215  1.05  0.313442
1.76215  1.05  0.313442
2.25271  0.993867  0.225308
1.76215  1.05  0.313442
1.76215  1.05  0.313442
0.994507  1.89658  1.07949
1.76215  1.05  0.313442
0.4377  2.1  1.28911
1.76215  1.05  0.313442
1.76215  1.05  0.313442
1.76215  1.05  0.313442
1.76215  1.05  0.313442
2.72074  0.251837  0.1607
1.76215  1.05  0.313442
2.25271  1.03884  0.225308
1.76215  1.05  0.313444
1.76215  1.05001  0.313448
1.76216  1.05002  0.313456
1.76217  1.05005  0.313482
1.76223  1.05018  0.313574
1.76242  1.05066  0.313919
1.76275  1.05143  0.314479
2.25271  1.0484  0.225308
2.25271  1.04899  0.225308
2.25271  1.04944  0.225308
2.25271  1.04962  0.225308
2.25271  1.0497  0.225308
2.25271  1.04976  0.225308
2.25271  1.04982  0.225308
2.25271  1.04985  0.225308
2.25271  1.04987  0.225308
2.25271  1.0499  0.225308
2.25271  1.04992  0.225308
2.25271  1.04993  0.225308
2.25271  1.04995  0.225308
2.25271  1.04996  0.225308
2.25271  1.04997  0.225308
2.25271  1.04999  0.225308
2.25271  1.05  0.225308
2.25271  1.05  0.225308
2.25271  1.05  0.225308
2.72074  0.469197  0.1607
1.76528  1.05749  0.31887
2.25271  1.05  0.225308
2.25271  1.05  0.225308
2.25271  1.05  0.225308
2.72074  0.65208  0.1607
2.25271  1.05  0.225308
1.77631  1.08384  0.337968
1.44893  1.575  0.779378
2.25271  1.05  0.225308
0.4377  2.1  1.28911
1.05772  2.08217  1.18898
2.25271  1.05  0.225308
2.72074  0.800486  0.1607
2.25271  1.05  0.225308
1.06238  2.09585  1.19705
2.25271  1.05  0.225308
2.25271  1.05  0.225308
1.06349  2.09911  1.19897
2.25271  1.05  0.225308
1.06374  2.09984  1.1994
2.72074  0.914415  0.1607
1.82219  1.1935  0.417433
1.0638  2.1  1.1995
2.25271  1.05  0.225308
2.25271  1.05  0.225308
2.25271  1.05  0.225308
2.25271  1.05  0.225308
2.25271  1.05  0.225308
2.72074  0.993867  0.1607
2.25271  1.05  0.225308
2.25271  1.05  0.225308
1.57247  1.89658  0.993356
2.25271  1.05  0.225308
1.0638  2.1  1.1995
2.25271  1.05  0.225308
2.25271  1.05  0.225308
2.25271  1.05  0.225308
2.25271  1.05  0.225308
3.16808  0.251837  0.114682
2.25271  1.05  0.225308
2.72074  1.03884  0.1607
2.25271  1.05  0.225309
2.25271  1.05001  0.225314
2.25271  1.05002  0.225322
2.25273  1.05005  0.22535
2.25279  1.05018  0.225448
2.253  1.05066  0.225814
2.25334  1.05143  0.22641
2.72074  1.0484  0.1607
2.72074  1.04899  0.1607
2.72074  1.04944  0.1607
2.72074  1.04962  0.1607
2.72074  1.0497  0.1607
2.72074  1.04976  0.1607
2.72074  1.04982  0.1607
2.72074  1.04985  0.1607
2.72074  1.04987  0.1607
2.72074  1.0499  0.1607
2.72074  1.04992  0.1607
2.72074  1.04993  0.1607
2.72074  1.04995  0.1607
2.72074  1.04996  0.1607
2.72074  1.04997  0.1607
2.72074  1.04999  0.1607
2.72074  1.05  0.1607
2.72074  1.05  0.1607
2.72074  1.05  0.1607
3.16808  0.469197  0.114682
2.25604  1.05749  0.231075
2.72074  1.05  0.1607
2.72074  1.05  0.1607
2.72074  1.05  0.1607
3.16808  0.65208  0.114682
2.72074  1.05  0.1607
2.26775  1.08384  0.251371
1.9818  1.575  0.693884
2.72074  1.05  0.1607
1.0638  2.1  1.1995
1.64377  2.08217  1.11685
2.72074  1.05  0.1607
3.16808  0.800486  0.114682
2.72074  1.05  0.1607
1.64903  2.09585  1.12595
2.72074  1.05  0.1607
2.72074  1.05  0.1607
1.65028  2.09911  1.12812
2.72074  1.05  0.1607
1.65056  2.09984  1.12861
3.16808  0.914415  0.114682
2.31651  1.1935  0.335818
1.65062  2.1  1.12871
2.72074  1.05  0.1607
2.72074  1.05  0.1607
2.72074  1.05  0.1607
2.72074  1.05  0.1607
2.72074  1.05  0.1607
3.16808  0.993867  0.114682
2.72074  1.05  0.1607
2.72074  1.05  0.1607
2.11634  1.89658  0.926915
2.72074  1.05  0.1607
1.65062  2.1  1.12871
2.72074  1.05  0.1607
2.72074  1.05  0.1607
2.72074  1.05  0.1607
2.72074  1.05  0.1607
2.72074  1.05  0.1607
3.16808  1.03884  0.114682
2.72074  1.05  0.160702
2.72074  1.05001  0.160707
2.72075  1.05002  0.160715
2.72077  1.05005  0.160744
2.72083  1.05018  0.160846
2.72105  1.05066  0.161229
2.72141  1.05143  0.161851
3.16808  1.0484  0.114682
3.16808  1.04899  0.114682
3.16808  1.04944  0.114682
3.16808  1.04962  0.114682
3.16808  1.0497  0.114682
3.16808  1.04976  0.114682
3.16808  1.04982  0.114682
3.16808  1.04985  0.114682
3.16808  1.04987  0.114682
3.16808  1.0499  0.114682
3.16808  1.04992  0.114682
3.16808  1.04993  0.114682
3.16808  1.04995  0.114682
3.16808  1.04996  0.114682
3.16808  1.04997  0.114682
3.16808  1.04999  0.114682
3.16808  1.05  0.114682
3.16808  1.05  0.114682
3.16808  1.05  0.114682
2.72422  1.05749  0.166722
3.16808  1.05  0.114682
3.16808  1.05  0.114682
3.16808  1.05  0.114682
3.73551  0.251837  0.073709
3.16808  1.05  0.114682
2.73645  1.08384  0.187914
2.48613  1.575  0.629602
3.16808  1.05  0.114682
1.65062  2.1  1.12871
2.19399  2.08217  1.06141
3.16808  1.05  0.114682
3.73551  0.469197  0.073709
3.16808  1.05  0.114682
2.19971  2.09585  1.07132
3.16808  1.05  0.114682
3.16808  1.05  0.114682
2.20107  2.09911  1.07368
3.16808  1.05  0.114682
2.20138  2.09984  1.07421
3.73551  0.65208  0.073709
2.78736  1.1935  0.276089
2.20145  2.1  1.07433
3.16808  1.05  0.114682
3.16808  1.05  0.114682
3.16808  1.05  0.114682
3.16808  1.05  0.114682
3.16808  1.05  0.114682
3.73551  0.800486  0.073709
3.16808  1.05  0.114682
3.16808  1.05  0.114682
2.6291  1.89658  0.877243
3.16808  1.05  0.114682
2.20145  2.1  1.07433
3.16808  1.05  0.114682
3.16808  1.05  0.114682
3.16808  1.05  0.114682
3.16808  1.05  0.114682
3.73551  0.914415  0.073709
3.16808  1.05  0.114682
3.16808  1.05  0.114684
3.16809  1.05001  0.114689
3.16809  1.05002  0.114698
3.16811  1.05005  0.114728
3.16817  1.05018  0.114833
3.1684  1.05066  0.115228
3.16877  1.05143  0.115869
3.73551  0.993867  0.073709
3.17167  1.05749  0.120891
3.73551  1.03884  0.073709
3.18428  1.08384  0.14274
2.96447  1.575  0.582844
2.20145  2.1  1.07433
3.73551  1.0484  0.073709
3.73551  1.04899  0.073709
2.71162  2.08217  1.02017
3.73551  1.04944  0.073709
3.73551  1.04962  0.073709
3.73551  1.0497  0.073709
3.73551  1.04976  0.073709
3.73551  1.04982  0.073709
3.73551  1.04985  0.073709
3.73551  1.04987  0.073709
3.73551  1.0499  0.073709
3.73551  1.04992  0.073709
3.73551  1.04993  0.073709
3.73551  1.04995  0.073709
3.73551  1.04996  0.073709
3.73551  1.04997  0.073709
3.73551  1.04999  0.073709
3.73551  1.05  0.073709
3.73551  1.05  0.073709
3.73551  1.05  0.073709
3.73551  1.05  0.073709
2.7177  2.09585  1.0307
3.73551  1.05  0.073709
3.73551  1.05  0.073709
2.71915  2.09911  1.03321
2.71947  2.09984  1.03377
3.73551  1.05  0.073709
3.23677  1.1935  0.233651
2.71954  2.1  1.0339
3.73551  1.05  0.073709
3.73551  1.05  0.073709
3.73551  1.05  0.073709
3.11375  1.89658  0.841418
3.73551  1.05  0.073709
2.71954  2.1  1.0339
3.73551  1.05  0.073709
3.73551  1.05  0.073709
3.73551  1.05  0.073709
3.73551  1.05  0.073709
3.73551  1.05  0.073709
3.73551  1.05  0.073709
3.73551  1.05  0.073709
3.73551  1.05  0.073709
3.73551  1.05  0.073709
3.73551  1.05  0.073709
3.73551  1.05  0.073709
3.73551  1.05  0.073709
3.73551  1.05  0.073709
3.73551  1.05  0.073709
4.54727  0.251837  0.0372579
3.73551  1.05  0.073709
3.41937  1.575  0.549923
3.73551  1.05  0.0737105
3.73552  1.05001  0.0737158
3.73552  1.05002  0.0737251
3.73554  1.05005  0.0737555
3.7356  1.05018  0.0738637
2.71954  2.1  1.0339
3.73584  1.05066  0.0742698
3.73622  1.05143  0.0749288
3.19991  2.08217  0.990651
4.54727  0.469197  0.0372579
3.7392  1.05749  0.0800925
3.20626  2.09585  1.00165
3.20778  2.09911  1.00427
3.20812  2.09984  1.00486
4.54727  0.65208  0.0372579
3.75217  1.08384  0.102555
3.20819  2.1  1.00499
4.54727  0.800486  0.0372579
3.57329  1.89658  0.816519
3.20819  2.1  1.00499
4.54727  0.914415  0.0372579
3.80613  1.1935  0.19602
4.54727  0.993867  0.0372579
4.54727  1.03884  0.0372579
3.20819  2.1  1.00499
4.54727  1.0484  0.0372579
4.54727  1.04899  0.0372579
3.66212  2.08217  0.970381
4.54727  1.04944  0.0372579
4.54727  1.04962  0.0372579
4.54727  1.0497  0.0372579
4.54727  1.04976  0.0372579
4.54727  1.04982  0.0372579
4.54727  1.04985  0.0372579
4.54727  1.04987  0.0372579
4.54727  1.0499  0.0372579
4.54727  1.04992  0.0372579
4.54727  1.04993  0.0372579
4.54727  1.04995  0.0372579
4.54727  1.04996  0.0372579
4.54727  1.04997  0.0372579
4.54727  1.04999  0.0372579
4.54727  1.05  0.0372579
4.54727  1.05  0.0372579
4.54727  1.05  0.0372579
4.54727  1.05  0.0372579
3.66867  2.09585  0.981723
4.54727  1.05  0.0372579
4.54727  1.05  0.0372579
3.67023  2.09911  0.984423
3.67058  2.09984  0.985031
4.54727  1.05  0.0372579
3.67066  2.1  0.985163
3.99386  1.575  0.521178
4.54727  1.05  0.0372579
4.54727  1.05  0.0372579
4.54727  1.05  0.0372579
4.54727  1.05  0.0372579
3.67066  2.1  0.985163
4.54727  1.05  0.0372579
4.54727  1.05  0.0372579
4.54727  1.05  0.0372579
4.54727  1.05  0.0372579
4.54727  1.05  0.0372579
4.54727  1.05  0.0372579
4.54727  1.05  0.0372579
4.54727  1.05  0.0372579
4.54727  1.05  0.0372579
4.1521  1.89658  0.795265
4.54727  1.05  0.0372579
4.54727  1.05  0.0372579
4.54727  1.05  0.0372579
4.54727  1.05  0.0372579
4.54727  1.05  0.0372579
4.54727  1.05  0.0372579
4.54727  1.05  0.0372594
4.54728  1.05001  0.0372648
4.54728  1.05002  0.0372744
4.5473  1.05005  0.0373056
4.54737  1.05018  0.0374167
3.67066  2.1  0.985163
4.54761  1.05066  0.0378336
4.548  1.05143  0.0385101
4.55106  1.05749  0.0438113
4.56437  1.08384  0.0668718
4.24343  2.08217  0.95345
4.25016  2.09585  0.96511
4.25177  2.09911  0.967887
4.25213  2.09984  0.968512
4.61977  1.1935  0.162825
4.25221  2.1  0.968647
5.79819  0.251831  0.0139115
4.25221  2.1  0.968647
5.79819  0.469185  0.0139115
5.79819  0.652064  0.0139115
4.8125  1.575  0.496637
4.25221  2.1  0.968647
5.79819  0.800466  0.0139115
5.79819  0.914393  0.0139115
5.79819  0.993843  0.0139115
4.97495  1.89658  0.778019
5.79819  1.03882  0.0139115
5.79819  1.04838  0.0139115
5.79819  1.04897  0.0139115
5.79819  1.04942  0.0139115
5.79819  1.0496  0.0139115
5.79819  1.04967  0.0139115
5.79819  1.04974  0.0139115
5.79819  1.0498  0.0139115
5.79819  1.04982  0.0139115
5.79819  1.04985  0.0139115
5.79819  1.04987  0.0139115
5.79819  1.04989  0.0139115
5.79819  1.04991  0.0139115
5.79819  1.04992  0.0139115
5.79819  1.04994  0.0139115
5.79819  1.04995  0.0139115
5.79819  1.04997  0.0139115
5.79819  1.04997  0.0139115
5.79819  1.04997  0.0139115
5.79819  1.04997  0.0139115
5.79819  1.04997  0.0139115
5.79819  1.04997  0.0139115
5.79819  1.04997  0.0139115
5.79819  1.04997  0.0139115
5.79819  1.04997  0.0139115
5.79819  1.04997  0.0139115
6.53406  0.251687  0.00798644
5.79819  1.04997  0.0139115
5.06871  2.08217  0.940415
5.79819  1.04997  0.0139115
5.79819  1.04997  0.0139115
5.79819  1.04997  0.0139115
5.07562  2.09585  0.952386
6.53406  0.468917  0.00798644
5.79819  1.04997  0.0139115
5.79819  1.04997  0.0139115
5.07727  2.09911  0.955236
5.07764  2.09984  0.955878
5.79819  1.04997  0.0139115
5.07772  2.1  0.956017
5.79819  1.04997  0.0139115
5.79819  1.04997  0.0139115
6.53406  0.651691  0.00798644
5.79819  1.04997  0.0139115
5.79819  1.04997  0.0139115
5.79819  1.04997  0.0139115
5.79819  1.04997  0.0139115
5.79819  1.04997  0.0139115
5.79819  1.04997  0.0139115
5.79819  1.04997  0.0139115
5.79819  1.04997  0.0139115
6.53406  0.800009  0.00798644
5.07772  2.1  0.956017
5.79819  1.04998  0.013913
5.7982  1.04998  0.0139186
5.7982  1.04999  0.0139284
5.79822  1.05003  0.0139603
5.79829  1.05016  0.0140738
5.79853  1.05063  0.0144999
5.79893  1.05141  0.0151912
5.80206  1.05746  0.0206088
6.53406  0.913871  0.00798644
5.81567  1.08382  0.0441754
6.53406  0.993276  0.00798644
5.07772  2.1  0.956017
6.53406  1.03822  0.00798644
6.53406  1.04778  0.00798644
6.53406  1.04837  0.00798644
6.53406  1.04882  0.00798644
6.53406  1.049  0.00798644
6.53406  1.04907  0.00798644
6.53406  1.04914  0.00798644
6.53406  1.0492  0.00798644
6.53406  1.04922  0.00798644
6.53406  1.04925  0.00798644
6.53406  1.04927  0.00798644
6.53406  1.04929  0.00798644
6.53406  1.04931  0.00798644
6.53406  1.04932  0.00798644
6.53406  1.04934  0.00798644
6.53406  1.04935  0.00798644
6.53406  1.04937  0.00798644
6.53406  1.04937  0.00798644
6.53406  1.04938  0.00798644
6.53406  1.04938  0.00798644
5.87228  1.19347  0.142235
6.53406  1.04938  0.00798644
6.53406  1.04938  0.00798644
6.53406  1.04938  0.00798644
6.53406  1.04938  0.00798644
6.53406  1.04938  0.00798644
6.53406  1.04938  0.00798644
6.53406  1.04938  0.00798644
6.53406  1.04938  0.00798644
6.53406  1.04938  0.00798644
6.53406  1.04938  0.00798644
6.53406  1.04938  0.00798644
6.53406  1.04938  0.00798644
6.53406  1.04938  0.00798644
6.53406  1.04938  0.00798644
6.53406  1.04938  0.00798644
6.06924  1.57496  0.483375
6.53406  1.04938  0.00798644
6.53406  1.04938  0.00798644
6.53406  1.04938  0.00798644
6.53406  1.04938  0.00798644
6.53406  1.04938  0.00798644
6.53406  1.04938  0.00798644
6.53406  1.04938  0.00798644
6.53406  1.04938  0.00798644
6.53406  1.04938  0.00798796
6.53406  1.04938  0.0079936
6.53407  1.04939  0.00800342
6.53409  1.04943  0.00803561
6.53415  1.04956  0.00815013
6.5344  1.05003  0.00857978
6.5348  1.05081  0.00927692
6.53796  1.05686  0.0147403
6.55168  1.0832  0.0385059
6.23526  1.89653  0.770934
6.60877  1.19279  0.137393
6.33108  2.08212  0.936894
6.33814  2.0958  0.949128
6.33982  2.09906  0.952041
6.3402  2.09979  0.952697
6.34028  2.09995  0.952838
6.80739  1.57406  0.481414
6.34028  2.09995  0.952838
8.41254  0.24912  0.00181892
8.41254  0.464136  0.00181892
6.34028  2.09995  0.952838
6.97482  1.89545  0.771402
8.41254  0.645046  0.00181892
8.41254  0.791851  0.00181892
8.41254  0.904552  0.00181892
7.07144  2.08093  0.938764
8.41254  0.983147  0.00181892
7.07857  2.0946  0.951101
7.08026  2.09786  0.954038
7.08064  2.09859  0.9547
7.08073  2.09875  0.954843
8.41254  1.02764  0.00181892
8.41254  1.03709  0.00181892
8.41254  1.03768  0.00181892
8.41254  1.03812  0.00181892
8.41254  1.0383  0.00181892
8.41254  1.03837  0.00181892
8.41254  1.03844  0.00181892
8.41254  1.0385  0.00181892
8.41254  1.03853  0.00181892
8.41254  1.03855  0.00181892
8.41254  1.03857  0.00181892
8.41254  1.03859  0.00181892
8.41254  1.03861  0.00181892
8.41254  1.03862  0.00181892
8.41254  1.03864  0.00181892
8.41254  1.03865  0.00181892
8.41254  1.03867  0.00181892
8.97949  0.247019  0.00111988
8.41254  1.03867  0.00181892
8.41254  1.03867  0.00181892
8.41254  1.03867  0.00181892
8.41254  1.03867  0.00181892
8.41254  1.03867  0.00181892
7.08073  2.09875  0.954843
8.41254  1.03867  0.00181892
8.97949  0.460221  0.00111988
8.41254  1.03867  0.00181892
8.41254  1.03867  0.00181892
8.41254  1.03867  0.00181892
8.97949  0.639605  0.00111988
8.41254  1.03867  0.00181892
8.41254  1.03867  0.00181892
8.41254  1.03867  0.00181892
8.41254  1.03867  0.00181892
8.97949  0.785172  0.00111988
8.41254  1.03867  0.00181892
7.08073  2.09875  0.954843
8.41254  1.03867  0.00181892
8.41254  1.03867  0.00181892
8.41254  1.03867  0.00181892
8.97949  0.896922  0.00111988
8.41254  1.03867  0.00181892
8.41254  1.03867  0.00181892
8.41254  1.03867  0.00181892
8.41254  1.03867  0.00181892
8.41254  1.03867  0.00181892
8.41254  1.03867  0.00181892
8.41254  1.03867  0.00181892
8.41254  1.03867  0.00181892
8.97949  0.974854  0.00111988
8.41254  1.03867  0.00181892
8.41254  1.03868  0.00182045
8.41254  1.03868  0.00182619
8.41255  1.03869  0.00183618
8.41257  1.03873  0.0018689
8.41263  1.03885  0.00198532
8.41289  1.03933  0.00242211
8.4133  1.04009  0.00313082
8.97949  1.01897  0.00111988
8.4165  1.04608  0.00868491
9.48945  0.244101  0.000726912
8.97949  1.02835  0.00111988
8.97949  1.02892  0.00111988
8.97949  1.02937  0.00111988
8.97949  1.02954  0.00111988
8.97949  1.02962  0.00111988
8.97949  1.02968  0.00111988
8.97949  1.02974  0.00111988
8.97949  1.02976  0.00111988
8.97949  1.02979  0.00111988
8.97949  1.02981  0.00111988
8.97949  1.02983  0.00111988
8.97949  1.02985  0.00111988
8.97949  1.02986  0.00111988
8.97949  1.02988  0.00111988
8.97949  1.02989  0.00111988
8.97949  1.0299  0.00111988
8.97949  1.02991  0.00111988
8.97949  1.02991  0.00111988
8.97949  1.02991  0.00111988
8.97949  1.02991  0.00111988
8.43045  1.07215  0.0328454
8.97949  1.02991  0.00111988
9.48945  0.454783  0.000726912
8.97949  1.02991  0.00111988
8.97949  1.02991  0.00111988
8.97949  1.02991  0.00111988
9.48945  0.632048  0.000726912
8.97949  1.02991  0.00111988
8.48849  1.18063  0.133375
8.97949  1.02991  0.00111988
8.97949  1.02991  0.00111988
9.48945  0.775895  0.000726912
8.97949  1.02991  0.00111988
8.97949  1.02991  0.00111988
8.97949  1.02991  0.00111988
8.97949  1.02991  0.00111988
8.97949  1.02991  0.00111988
9.48945  0.886325  0.000726912
8.97949  1.02991  0.00111988
8.97949  1.02991  0.00111988
8.97949  1.02991  0.00111988
8.97949  1.02991  0.00111988
8.97949  1.02991  0.00111988
8.97949  1.02991  0.00111988
9.48945  0.963336  0.000726912
8.97949  1.02991  0.00111988
8.97949  1.02991  0.00111988
8.97949  1.02991  0.00111988
8.97949  1.02991  0.00111988
8.97949  1.02991  0.00112142
8.97949  1.02992  0.00112719
8.9795  1.02993  0.00113722
8.97952  1.02997  0.00117008
8.97958  1.03009  0.001287
8.97984  1.03056  0.00172568
8.98025  1.03132  0.00243746
9.48945  1.00693  0.000726912
8.98347  1.03726  0.00801555
9.48945  1.0162  0.000726912
9.48945  1.01677  0.000726912
8.69041  1.55801  0.483111
9.48945  1.01721  0.000726912
9.48945  1.01738  0.000726912
9.48945  1.01745  0.000726912
9.48945  1.01752  0.000726912
9.48945  1.01757  0.000726912
9.48945  1.0176  0.000726912
9.48945  1.01762  0.000726912
9.48945  1.01764  0.000726912
9.48945  1.01766  0.000726912
9.48945  1.01768  0.000726912
9.48945  1.0177  0.000726912
9.48945  1.01771  0.000726912
9.48945  1.01772  0.000726912
9.48945  1.01774  0.000726912
9.48945  1.01774  0.000726912
9.48945  1.01775  0.000726912
9.48945  1.01775  0.000726912
9.48945  1.01775  0.000726912
9.48945  1.01775  0.000726912
8.99748  1.06311  0.0322805
9.48945  1.01775  0.000726912
9.48945  1.01775  0.000726912
10.0861  0.238795  0.000946393
9.48945  1.01775  0.000726912
9.48945  1.01775  0.000726912
10.1257  0.23835  0.00105317
10.1453  0.238124  0.00111337
9.48945  1.01775  0.000726912
10.0863  0.444881  0.000961576
10.165  0.237895  0.0011783
9.48945  1.01775  0.000726912
9.05577  1.17067  0.133245
9.48945  1.01775  0.000726912
10.1845  0.237663  0.00124812
10.1258  0.444047  0.00107192
9.48945  1.01775  0.000726912
8.86062  1.87612  0.777915
10.204  0.237428  0.00132297
9.48945  1.01775  0.000726912
10.1455  0.443623  0.00113409
10.2234  0.237191  0.001403
10.0865  0.618256  0.000986881
9.48945  1.01775  0.000726912
10.1651  0.443193  0.00120113
10.2428  0.236951  0.00148835
9.48945  1.01775  0.000726912
10.1847  0.442758  0.00127319
9.48945  1.01775  0.000726912
10.2621  0.236708  0.00157918
10.1261  0.617091  0.00110316
9.48945  1.01775  0.000726912
10.2042  0.442318  0.00135043
9.48945  1.01775  0.000726912
10.2814  0.236463  0.00167563
10.1458  0.616497  0.00116862
9.48945  1.01775  0.000726912
10.2237  0.441873  0.001433
10.0867  0.758922  0.00102231
9.48945  1.01775  0.000726912
10.1654  0.615896  0.00123918
9.48945  1.01775  0.000726912
10.2431  0.441423  0.00152104
9.48945  1.01775  0.000726912
10.3197  0.235963  0.00188599
10.185  0.615287  0.00131498
9.48945  1.01775  0.000726912
10.2624  0.440967  0.00161471
10.1264  0.757481  0.0011469
9.48945  1.01775  0.000726912
10.2046  0.614671  0.0013962
9.48945  1.01775  0.000726912
10.2817  0.440506  0.00171417
10.1462  0.756746  0.00121697
9.48945  1.01775  0.000728461
9.48945  1.01775  0.000734245
9.48946  1.01776  0.000744312
9.48948  1.0178  0.000777296
10.3578  0.235453  0.00212061
10.2241  0.614047  0.00148299
9.48954  1.01792  0.000894662
10.0871  0.866877  0.00106786
9.4898  1.01838  0.00133499
10.1659  0.756002  0.00129244
9.49021  1.01913  0.00204943
10.2435  0.613416  0.00157551
10.3201  0.439568  0.00193103
10.1855  0.755249  0.00137349
10.3957  0.234931  0.00238068
10.2629  0.612777  0.00167392
10.1269  0.865217  0.00120314
10.2051  0.754486  0.00146028
9.49344  1.025  0.00764844
10.2822  0.61213  0.00177838
10.1467  0.864371  0.00127913
8.95885  2.05971  0.948058
10.3583  0.438608  0.00217285
10.2246  0.753713  0.00155299
10.0875  0.942122  0.00112353
10.1664  0.863513  0.00136092
9.25856  1.54487  0.484493
10.2441  0.75293  0.00165178
10.4521  0.234126  0.00282105
10.3207  0.610813  0.00200609
10.1861  0.862643  0.00144871
10.3962  0.437625  0.00244084
10.2635  0.752138  0.00175682
10.1274  0.9403  0.00127188
8.96609  2.07324  0.960599
10.2058  0.861762  0.00154267
9.5075  1.05055  0.0320043
10.4802  0.233714  0.00306495
10.2829  0.751335  0.00186829
10.1473  0.93937  0.0013551
8.96781  2.07647  0.963586
10.359  0.609465  0.0022599
10.2254  0.86087  0.00164298
10.0881  0.984658  0.00118932
8.9682  2.07719  0.964258
10.1671  0.938427  0.00144462
10.508  0.233295  0.00332532
10.2449  0.859966  0.00174983
8.96829  2.07735  0.964403
10.4527  0.43611  0.00289455
10.3215  0.749701  0.00211117
10.1868  0.937471  0.00154064
10.0884  0.993659  0.00122602
10.397  0.608084  0.0025411
10.2644  0.85905  0.0018634
10.0884  0.994209  0.00123078
10.1281  0.98273  0.00135311
10.0884  0.994632  0.00123558
10.0885  0.994795  0.001238
10.5358  0.23287  0.00360266
10.0885  0.994865  0.00123921
10.0885  0.994926  0.00124043
10.2066  0.936501  0.00164336
10.0885  0.99498  0.00124164
10.0885  0.995004  0.00124225
10.0885  0.995026  0.00124286
10.0885  0.995046  0.00124347
10.0885  0.995063  0.00124409
10.0885  0.995079  0.0012447
10.0885  0.995093  0.00124531
10.0885  0.995105  0.00124592
10.0885  0.995115  0.00124654
10.0885  0.995129  0.00124777
10.0885  0.995134  0.001249
10.0885  0.995133  0.00125023
10.4808  0.435333  0.00314579
10.2838  0.858121  0.00198388
10.148  0.981745  0.00144489
10.0886  0.995125  0.00125523
10.3599  0.748025  0.00238178
10.2262  0.935519  0.00175297
10.0887  0.995108  0.00126548
10.1284  0.9917  0.00139842
10.5635  0.232438  0.00389746
10.1285  0.992247  0.0014043
10.1679  0.980746  0.00154354
10.1285  0.992667  0.00141023
10.1285  0.992829  0.00141322
10.1285  0.992898  0.00141471
10.5087  0.434544  0.00341399
10.1286  0.992959  0.00141621
10.2458  0.934522  0.00186967