 VARIABLES = X Y
 ZONE N = 21, E = 20, DATAPACKING= POINT, ZONETYPE= FETRIANGLE
0.0316228  0.0948683
0.009124  0.0995829
-0.0138569  0.0990353
-0.0361056  0.0932544
-0.0564464  0.0825458
-0.0738044  0.0674753
-0.0872624  0.0488392
-0.0961093  0.0276224
-0.0998776  0.0049459
-0.0983681  -0.0179919
-0.0916607  -0.039979
-0.0801097  -0.0598535
-0.0643255  -0.0765652
-0.0451422  -0.0892311
-0.0235735  -0.0971817
-0.000759112  -0.0999971
0.0220954  -0.0975284
0.0437823  -0.0899061
0.0631557  -0.077533
0.0791917  -0.0610628
0.0910432  -0.041366
1  2  1
2  3  2
3  4  3
4  5  4
5  6  5
6  7  6
7  8  7
8  9  8
9  10  9
10  11  10
11  12  11
12  13  12
13  14  13
14  15  14
15  16  15
16  17  16
17  18  17
18  19  18
19  20  19
20  21  20
