 VARIABLES = X Y Z
 ZONE N = 4, E = 2, DATAPACKING= POINT, ZONETYPE= FETRIANGLE
0  0  0
0  0  0.43
0  0.3  0.43
0  0.3  0
2  4  3
2  1  4
 VARIABLES = X Y Z
 ZONE N = 4, E = 2, DATAPACKING= POINT, ZONETYPE= FETRIANGLE
0.1  0  0
0.1  0  0.43
0.1  0.3  0.43
0.1  0.3  0
2  4  3
2  1  4
 VARIABLES = X Y Z
 ZONE N = 4, E = 2, DATAPACKING= POINT, ZONETYPE= FETRIANGLE
0  0  0
0.1  0  0
0.1  0  0.43
0  0  0.43
3  2  1
3  1  4
 VARIABLES = X Y Z
 ZONE N = 4, E = 2, DATAPACKING= POINT, ZONETYPE= FETRIANGLE
0  0.3  0
0.1  0.3  0
0.1  0.3  0.43
0  0.3  0.43
3  2  1
3  1  4
 VARIABLES = X Y Z
 ZONE N = 4, E = 2, DATAPACKING= POINT, ZONETYPE= FETRIANGLE
0  0  0
0  0.3  0
0.1  0.3  0
0.1  0  0
3  2  1
3  1  4
 VARIABLES = X Y Z
 ZONE N = 4, E = 2, DATAPACKING= POINT, ZONETYPE= FETRIANGLE
0  0  0.43
0  0.3  0.43
0.1  0.3  0.43
0.1  0  0.43
3  2  1
3  1  4
 VARIABLES = X Y Z
 ZONE N = 10, E = 9, DATAPACKING= POINT, ZONETYPE= FETRIANGLE
0  0  0
0  0  0.026875
0  0  0.080625
0  0  0.134375
0  0  0.188125
0  0  0.241875
0  0  0.295625
0  0  0.349375
0  0  0.403125
0  0  0.43
1  2  2
2  3  3
3  4  4
4  5  5
5  6  6
6  7  7
7  8  8
8  9  9
9  10  10
 VARIABLES = X Y Z
 ZONE N = 10, E = 9, DATAPACKING= POINT, ZONETYPE= FETRIANGLE
0  0  0
0  0.01875  0
0  0.05625  0
0  0.09375  0
0  0.13125  0
0  0.16875  0
0  0.20625  0
0  0.24375  0
0  0.28125  0
0  0.3  0
1  2  2
2  3  3
3  4  4
4  5  5
5  6  6
6  7  7
7  8  8
8  9  9
9  10  10
 VARIABLES = X Y Z
 ZONE N = 10, E = 9, DATAPACKING= POINT, ZONETYPE= FETRIANGLE
0  0.3  0
0  0.3  0.026875
0  0.3  0.080625
0  0.3  0.134375
0  0.3  0.188125
0  0.3  0.241875
0  0.3  0.295625
0  0.3  0.349375
0  0.3  0.403125
0  0.3  0.43
1  2  2
2  3  3
3  4  4
4  5  5
5  6  6
6  7  7
7  8  8
8  9  9
9  10  10
 VARIABLES = X Y Z
 ZONE N = 10, E = 9, DATAPACKING= POINT, ZONETYPE= FETRIANGLE
0  0  0.43
0  0.01875  0.43
0  0.05625  0.43
0  0.09375  0.43
0  0.13125  0.43
0  0.16875  0.43
0  0.20625  0.43
0  0.24375  0.43
0  0.28125  0.43
0  0.3  0.43
1  2  2
2  3  3
3  4  4
4  5  5
5  6  6
6  7  7
7  8  8
8  9  9
9  10  10
 VARIABLES = X Y Z
 ZONE N = 10, E = 9, DATAPACKING= POINT, ZONETYPE= FETRIANGLE
0.1  0  0
0.1  0  0.026875
0.1  0  0.080625
0.1  0  0.134375
0.1  0  0.188125
0.1  0  0.241875
0.1  0  0.295625
0.1  0  0.349375
0.1  0  0.403125
0.1  0  0.43
1  2  2
2  3  3
3  4  4
4  5  5
5  6  6
6  7  7
7  8  8
8  9  9
9  10  10
 VARIABLES = X Y Z
 ZONE N = 10, E = 9, DATAPACKING= POINT, ZONETYPE= FETRIANGLE
0.1  0  0
0.1  0.01875  0
0.1  0.05625  0
0.1  0.09375  0
0.1  0.13125  0
0.1  0.16875  0
0.1  0.20625  0
0.1  0.24375  0
0.1  0.28125  0
0.1  0.3  0
1  2  2
2  3  3
3  4  4
4  5  5
5  6  6
6  7  7
7  8  8
8  9  9
9  10  10
 VARIABLES = X Y Z
 ZONE N = 10, E = 9, DATAPACKING= POINT, ZONETYPE= FETRIANGLE
0.1  0.3  0
0.1  0.3  0.026875
0.1  0.3  0.080625
0.1  0.3  0.134375
0.1  0.3  0.188125
0.1  0.3  0.241875
0.1  0.3  0.295625
0.1  0.3  0.349375
0.1  0.3  0.403125
0.1  0.3  0.43
1  2  2
2  3  3
3  4  4
4  5  5
5  6  6
6  7  7
7  8  8
8  9  9
9  10  10
 VARIABLES = X Y Z
 ZONE N = 10, E = 9, DATAPACKING= POINT, ZONETYPE= FETRIANGLE
0.1  0  0.43
0.1  0.01875  0.43
0.1  0.05625  0.43
0.1  0.09375  0.43
0.1  0.13125  0.43
0.1  0.16875  0.43
0.1  0.20625  0.43
0.1  0.24375  0.43
0.1  0.28125  0.43
0.1  0.3  0.43
1  2  2
2  3  3
3  4  4
4  5  5
5  6  6
6  7  7
7  8  8
8  9  9
9  10  10
 VARIABLES = X Y Z
 ZONE N = 10, E = 9, DATAPACKING= POINT, ZONETYPE= FETRIANGLE
0  0  0
0.00625  0  0
0.01875  0  0
0.03125  0  0
0.04375  0  0
0.05625  0  0
0.06875  0  0
0.08125  0  0
0.09375  0  0
0.1  0  0
1  2  2
2  3  3
3  4  4
4  5  5
5  6  6
6  7  7
7  8  8
8  9  9
9  10  10
 VARIABLES = X Y Z
 ZONE N = 10, E = 9, DATAPACKING= POINT, ZONETYPE= FETRIANGLE
0  0  0
0  0  0.026875
0  0  0.080625
0  0  0.134375
0  0  0.188125
0  0  0.241875
0  0  0.295625
0  0  0.349375
0  0  0.403125
0  0  0.43
1  2  2
2  3  3
3  4  4
4  5  5
5  6  6
6  7  7
7  8  8
8  9  9
9  10  10
 VARIABLES = X Y Z
 ZONE N = 10, E = 9, DATAPACKING= POINT, ZONETYPE= FETRIANGLE
0  0  0.43
0.00625  0  0.43
0.01875  0  0.43
0.03125  0  0.43
0.04375  0  0.43
0.05625  0  0.43
0.06875  0  0.43
0.08125  0  0.43
0.09375  0  0.43
0.1  0  0.43
1  2  2
2  3  3
3  4  4
4  5  5
5  6  6
6  7  7
7  8  8
8  9  9
9  10  10
 VARIABLES = X Y Z
 ZONE N = 10, E = 9, DATAPACKING= POINT, ZONETYPE= FETRIANGLE
0.1  0  0
0.1  0  0.026875
0.1  0  0.080625
0.1  0  0.134375
0.1  0  0.188125
0.1  0  0.241875
0.1  0  0.295625
0.1  0  0.349375
0.1  0  0.403125
0.1  0  0.43
1  2  2
2  3  3
3  4  4
4  5  5
5  6  6
6  7  7
7  8  8
8  9  9
9  10  10
 VARIABLES = X Y Z
 ZONE N = 10, E = 9, DATAPACKING= POINT, ZONETYPE= FETRIANGLE
0  0.3  0
0.00625  0.3  0
0.01875  0.3  0
0.03125  0.3  0
0.04375  0.3  0
0.05625  0.3  0
0.06875  0.3  0
0.08125  0.3  0
0.09375  0.3  0
0.1  0.3  0
1  2  2
2  3  3
3  4  4
4  5  5
5  6  6
6  7  7
7  8  8
8  9  9
9  10  10
 VARIABLES = X Y Z
 ZONE N = 10, E = 9, DATAPACKING= POINT, ZONETYPE= FETRIANGLE
0  0.3  0
0  0.3  0.026875
0  0.3  0.080625
0  0.3  0.134375
0  0.3  0.188125
0  0.3  0.241875
0  0.3  0.295625
0  0.3  0.349375
0  0.3  0.403125
0  0.3  0.43
1  2  2
2  3  3
3  4  4
4  5  5
5  6  6
6  7  7
7  8  8
8  9  9
9  10  10
 VARIABLES = X Y Z
 ZONE N = 10, E = 9, DATAPACKING= POINT, ZONETYPE= FETRIANGLE
0  0.3  0.43
0.00625  0.3  0.43
0.01875  0.3  0.43
0.03125  0.3  0.43
0.04375  0.3  0.43
0.05625  0.3  0.43
0.06875  0.3  0.43
0.08125  0.3  0.43
0.09375  0.3  0.43
0.1  0.3  0.43
1  2  2
2  3  3
3  4  4
4  5  5
5  6  6
6  7  7
7  8  8
8  9  9
9  10  10
 VARIABLES = X Y Z
 ZONE N = 10, E = 9, DATAPACKING= POINT, ZONETYPE= FETRIANGLE
0.1  0.3  0
0.1  0.3  0.026875
0.1  0.3  0.080625
0.1  0.3  0.134375
0.1  0.3  0.188125
0.1  0.3  0.241875
0.1  0.3  0.295625
0.1  0.3  0.349375
0.1  0.3  0.403125
0.1  0.3  0.43
1  2  2
2  3  3
3  4  4
4  5  5
5  6  6
6  7  7
7  8  8
8  9  9
9  10  10
 VARIABLES = X Y Z
 ZONE N = 10, E = 9, DATAPACKING= POINT, ZONETYPE= FETRIANGLE
0  0  0
0  0.01875  0
0  0.05625  0
0  0.09375  0
0  0.13125  0
0  0.16875  0
0  0.20625  0
0  0.24375  0
0  0.28125  0
0  0.3  0
1  2  2
2  3  3
3  4  4
4  5  5
5  6  6
6  7  7
7  8  8
8  9  9
9  10  10
 VARIABLES = X Y Z
 ZONE N = 10, E = 9, DATAPACKING= POINT, ZONETYPE= FETRIANGLE
0  0  0
0.00625  0  0
0.01875  0  0
0.03125  0  0
0.04375  0  0
0.05625  0  0
0.06875  0  0
0.08125  0  0
0.09375  0  0
0.1  0  0
1  2  2
2  3  3
3  4  4
4  5  5
5  6  6
6  7  7
7  8  8
8  9  9
9  10  10
 VARIABLES = X Y Z
 ZONE N = 10, E = 9, DATAPACKING= POINT, ZONETYPE= FETRIANGLE
0.1  0  0
0.1  0.01875  0
0.1  0.05625  0
0.1  0.09375  0
0.1  0.13125  0
0.1  0.16875  0
0.1  0.20625  0
0.1  0.24375  0
0.1  0.28125  0
0.1  0.3  0
1  2  2
2  3  3
3  4  4
4  5  5
5  6  6
6  7  7
7  8  8
8  9  9
9  10  10
 VARIABLES = X Y Z
 ZONE N = 10, E = 9, DATAPACKING= POINT, ZONETYPE= FETRIANGLE
0  0.3  0
0.00625  0.3  0
0.01875  0.3  0
0.03125  0.3  0
0.04375  0.3  0
0.05625  0.3  0
0.06875  0.3  0
0.08125  0.3  0
0.09375  0.3  0
0.1  0.3  0
1  2  2
2  3  3
3  4  4
4  5  5
5  6  6
6  7  7
7  8  8
8  9  9
9  10  10
 VARIABLES = X Y Z
 ZONE N = 10, E = 9, DATAPACKING= POINT, ZONETYPE= FETRIANGLE
0  0  0.43
0  0.01875  0.43
0  0.05625  0.43
0  0.09375  0.43
0  0.13125  0.43
0  0.16875  0.43
0  0.20625  0.43
0  0.24375  0.43
0  0.28125  0.43
0  0.3  0.43
1  2  2
2  3  3
3  4  4
4  5  5
5  6  6
6  7  7
7  8  8
8  9  9
9  10  10
 VARIABLES = X Y Z
 ZONE N = 10, E = 9, DATAPACKING= POINT, ZONETYPE= FETRIANGLE
0  0  0.43
0.00625  0  0.43
0.01875  0  0.43
0.03125  0  0.43
0.04375  0  0.43
0.05625  0  0.43
0.06875  0  0.43
0.08125  0  0.43
0.09375  0  0.43
0.1  0  0.43
1  2  2
2  3  3
3  4  4
4  5  5
5  6  6
6  7  7
7  8  8
8  9  9
9  10  10
 VARIABLES = X Y Z
 ZONE N = 10, E = 9, DATAPACKING= POINT, ZONETYPE= FETRIANGLE
0.1  0  0.43
0.1  0.01875  0.43
0.1  0.05625  0.43
0.1  0.09375  0.43
0.1  0.13125  0.43
0.1  0.16875  0.43
0.1  0.20625  0.43
0.1  0.24375  0.43
0.1  0.28125  0.43
0.1  0.3  0.43
1  2  2
2  3  3
3  4  4
4  5  5
5  6  6
6  7  7
7  8  8
8  9  9
9  10  10
 VARIABLES = X Y Z
 ZONE N = 10, E = 9, DATAPACKING= POINT, ZONETYPE= FETRIANGLE
0  0.3  0.43
0.00625  0.3  0.43
0.01875  0.3  0.43
0.03125  0.3  0.43
0.04375  0.3  0.43
0.05625  0.3  0.43
0.06875  0.3  0.43
0.08125  0.3  0.43
0.09375  0.3  0.43
0.1  0.3  0.43
1  2  2
2  3  3
3  4  4
4  5  5
5  6  6
6  7  7
7  8  8
8  9  9
9  10  10
