 VARIABLES = X Y
 ZONE N = 124, E = 206, DATAPACKING= POINT, ZONETYPE= FETRIANGLE
1  0
1  0.1
1  0.2
1  0.3
1  0.4
1  0.5
1  0.6
1  0.7
1  0.8
1  0.9
1  1
0.9  1
0.8  1
0.7  1
0.6  1
0.5  1
0.4  1
0.3  1
0.2  1
0.1  1
0  1
0  0.9
0  0.8
0  0.7
0  0.6
0  0.5
0  0.4
0  0.3
0  0.2
0  0.1
0  0
0.1  0
0.2  0
0.3  0
0.4  0
0.5  0
0.6  0
0.7  0
0.8  0
0.9  0
0.913397  0.35
0.85  0.0866025
0.75  0.0866025
0.65  0.0866025
0.55  0.0866025
0.45  0.0866025
0.35  0.0866025
0.913397  0.75
0.45  0.913397
0.25  0.0866025
0.0866025  0.15
0.0866025  0.25
0.0866025  0.35
0.0866025  0.45
0.0866025  0.55
0.35  0.913397
0.0866025  0.75
0.913397  0.85
0.25  0.913397
0.15  0.913397
0.913397  0.45
0.913397  0.25
0.55  0.913397
0.65  0.913397
0.75  0.913397
0.913397  0.55
0.0866025  0.65
0.913397  0.65
0.0866025  0.85
0.15  0.0866025
0.85  0.913397
0.913397  0.15
0.179539  0.820461
0.820461  0.820461
0.179539  0.179539
0.820461  0.179539
0.6  0.173205
0.173205  0.6
0.826795  0.6
0.6  0.826795
0.173205  0.3
0.826795  0.3
0.826795  0.4
0.3  0.826795
0.4  0.826795
0.173205  0.4
0.3  0.173205
0.4  0.173205
0.173205  0.5
0.5  0.826795
0.5  0.173205
0.826795  0.5
0.7  0.173205
0.7  0.826795
0.826795  0.7
0.173205  0.7
0.65  0.259808
0.55  0.259808
0.259808  0.65
0.35  0.259808
0.740192  0.35
0.65  0.740192
0.740192  0.45
0.35  0.740192
0.740192  0.55
0.45  0.259808
0.45  0.740192
0.740192  0.65
0.259808  0.35
0.259808  0.55
0.259808  0.45
0.55  0.740192
0.6  0.34641
0.34641  0.6
0.65359  0.6
0.4  0.34641
0.5  0.65359
0.34641  0.5
0.65359  0.5
0.5  0.34641
0.55  0.433013
0.433013  0.55
0.45  0.433013
0.566987  0.55
1  2  40
4  5  41
39  40  42
38  39  43
37  38  44
36  37  45
35  36  46
34  35  47
8  9  48
16  17  49
31  32  30
33  34  50
29  30  51
28  29  52
27  28  53
26  27  54
25  26  55
17  18  56
23  24  57
9  10  58
18  19  59
19  20  60
5  6  61
21  22  20
11  12  10
3  4  62
15  16  63
14  15  64
13  14  65
6  7  66
24  25  67
7  8  68
22  23  69
32  33  70
12  13  71
2  3  72
39  42  43
37  44  45
25  55  67
23  57  69
48  9  58
7  68  66
50  34  47
33  50  70
51  30  70
46  36  45
13  65  71
29  51  52
15  63  64
35  46  47
28  52  53
27  53  54
26  54  55
41  5  61
56  18  59
17  56  49
16  49  63
59  19  60
60  20  69
62  4  41
3  62  72
61  6  66
57  24  67
44  38  43
42  40  72
65  14  64
2  72  40
58  10  71
68  8  48
12  71  10
30  32  70
20  22  69
60  69  73
58  71  74
51  70  75
42  72  76
43  42  76
45  44  77
48  58  74
67  55  78
66  68  79
64  63  80
53  52  81
62  41  82
69  57  73
41  61  83
56  59  84
49  56  85
59  60  73
54  53  86
71  65  74
52  51  75
50  47  87
47  46  88
70  50  75
72  62  76
55  54  89
63  49  90
46  45  91
61  66  92
44  43  93
65  64  94
68  48  95
57  67  96
77  44  93
45  77  91
78  55  89
67  78  96
66  79  92
54  86  89
80  63  90
87  47  88
64  80  94
50  87  75
88  46  91
81  52  75
53  81  86
79  68  95
90  49  85
82  41  83
62  82  76
83  61  92
56  84  85
84  59  73
57  96  73
93  43  76
65  94  74
95  48  74
77  93  97
91  77  98
96  78  99
87  88  100
82  83  101
94  80  102
83  92  103
85  84  104
92  79  105
88  91  106
90  85  107
79  95  108
86  81  109
78  89  110
89  86  111
80  90  112
93  76  82
74  94  95
73  96  84
81  75  87
77  97  98
99  78  110
106  91  98
88  106  100
86  109  111
89  111  110
80  112  102
105  79  108
85  104  107
101  83  103
90  107  112
103  92  105
95  94  108
93  82  101
84  96  104
81  87  109
96  99  104
97  93  101
94  102  108
98  97  113
99  110  114
105  108  115
102  112  115
100  106  116
107  104  114
111  109  116
101  103  113
112  107  117
110  111  118
103  105  119
106  98  120
108  102  115
104  99  114
97  101  113
109  87  100
98  113  120
114  110  118
105  115  119
117  107  114
116  106  120
118  111  116
100  116  109
103  119  113
112  117  115
120  113  121
114  118  122
116  120  123
119  115  124
115  117  124
113  119  121
117  114  122
118  116  123
123  120  121
119  124  121
122  118  123
124  117  122
123  121  124
122  123  124
