 VARIABLES = X Y Z
 ZONE N = 230, E = 225, DATAPACKING= POINT, ZONETYPE= FETRIANGLE
0  0  1
0  0.552533  1
0  0.866133  1
0  0.945  1
0  0.945729  1.00278
0  0.957863  1.049
0  0.9835  1.14667
0  1.0115  1.25333
0  1.03714  1.351
0  1.04927  1.39722
0  1.05  1.4
0  1.05  1.43338
0  1.05  1.56612
0  1.05  1.8
4.44657  0  0.0747352
4.44657  0.551552  0.0747352
4.44657  0.86495  0.0747352
4.44658  0.944376  0.0747446
4.44666  0.944939  0.0751153
4.44789  0.945866  0.0821566
4.46551  0.958015  0.185633
4.50249  0.983557  0.403153
4.54285  1.01144  0.640623
4.57983  1.03699  0.858142
4.59745  1.04913  0.961619
4.5987  1.04996  0.968762
4.59889  1.05  0.969645
4.61171  1.05  1.04484
4.66218  1.05  1.34142
4.75095  1.05  1.86335
6.07948  0  0.0183075
6.07948  0.549363  0.0183075
6.07948  0.862313  0.0183075
6.07949  0.942985  0.0183387
6.07981  0.944804  0.0195565
6.08204  0.946171  0.0287744
6.10726  0.958354  0.137178
6.15957  0.983685  0.362535
6.21662  1.01132  0.608353
6.26893  1.03665  0.83371
6.29415  1.04883  0.942113
6.29647  1.04986  0.951666
6.29723  1.05  0.954567
6.31584  1.05  1.03437
6.38776  1.05  1.34376
6.51393  1.05  1.88685
7.98393  0  0.00392243
7.98393  0.54189  0.00392243
7.98393  0.852613  0.00392243
7.98396  0.936174  0.00401006
7.98509  0.94118  0.00743756
7.98969  0.943664  0.0217536
8.0243  0.955891  0.13338
8.09397  0.980595  0.35884
8.16978  1.00748  0.604215
8.23945  1.03219  0.829675
8.27406  1.04441  0.941301
8.27897  1.04597  0.95656
8.28167  1.04635  0.964724
8.30808  1.04636  1.0496
8.40566  1.04636  1.36476
8.57571  1.04636  1.91434
9.87948  0  0.000710069
9.87948  0.51993  0.000710069
9.87948  0.82054  0.000710069
9.87955  0.905581  0.000870348
9.88207  0.914307  0.00713904
9.89036  0.918075  0.0279302
9.93508  0.930063  0.142363
10.0219  0.953421  0.365131
10.1161  0.978769  0.606851
10.2029  1.00213  0.829618
10.2476  1.01411  0.944052
10.2566  1.01628  0.966567
10.2626  1.01693  0.981498
10.298  1.01694  1.07193
10.4225  1.01694  1.39067
10.6375  1.01694  1.94183
11.3885  0  0.0160541
11.3972  0.45907  0.0172578
11.4236  0.719909  0.0208689
11.4669  0.786012  0.0271316
11.5051  0.787148  0.0451056
11.5303  0.789431  0.0835689
11.5866  0.799491  0.20392
11.6842  0.818566  0.416677
11.789  0.839218  0.645601
11.8866  0.858293  0.858359
11.9429  0.868353  0.97871
11.9637  0.870552  1.02008
11.9804  0.871271  1.05268
12.0267  0.87129  1.15129
12.165  0.87129  1.45425
12.3971  0.87129  1.9653
12.9688  0  0.142891
13.0478  0  0.153725
13.2848  0  0.186225
13.6736  0  0.240868
13.9873  0  0.335335
14.1202  0  0.47619
14.2082  0  0.628571
14.2962  0  0.780952
14.3842  0  0.933333
14.4721  0  1.08571
14.5601  0  1.2381
14.6459  0  1.38663
14.7227  0  1.51971
14.7988  0  1.65144
14.891  0  1.81127
15  0  2
1.47038  0  0.545344
2.70362  0  0.273038
3.75138  0  0.129705
4.66554  0  0.0620709
5.52122  0  0.0291167
6.43702  0  0.0137253
7.45629  0  0.00603323
8.51086  0  0.00248901
9.52496  0  0.000982621
10.4279  0  0.00100578
11.2086  0  0.0105406
11.893  0  0.0413881
12.4525  0  0.0857329
12.8302  0  0.12559
1.47038  0.944953  0.545344
2.70362  0.944811  0.273038
3.75138  0.944538  0.129705
4.66554  0.944101  0.0620709
5.52122  0.943335  0.0291167
6.43702  0.941808  0.0137253
7.45629  0.938209  0.00603323
8.51086  0.929987  0.00248901
9.52496  0.913035  0.000982621
10.4304  0.880738  0.00135843
11.2538  0.812271  0.0167387
12.0736  0.68018  0.066144
12.8273  0.48784  0.137121
13.3794  0.254615  0.200902
13.5937  0  0.228585
1.47039  0.945006  0.545399
2.70366  0.945026  0.273266
3.7515  0.945064  0.130268
4.66578  0.945125  0.0631769
5.52172  0.945231  0.031183
6.43812  0.945413  0.0176953
7.45847  0.94447  0.0130068
8.5146  0.939418  0.0131591
9.53064  0.925606  0.0155777
10.4402  0.895287  0.0203514
11.2987  0.819531  0.0506847
12.2252  0.660783  0.140016
13.131  0.438541  0.26649
13.8194  0.20185  0.379593
14.0927  0  0.428571
0  0.97125  1.1
1.48147  0.971256  0.704829
2.7252  0.971276  0.468929
3.78277  0.971314  0.345725
4.70598  0.971375  0.28873
5.57042  0.971481  0.262395
6.49605  0.971663  0.25248
7.5269  0.970684  0.250592
8.59421  0.965481  0.253094
9.62139  0.951275  0.25754
10.5414  0.920081  0.26418
11.4115  0.841821  0.298512
12.3535  0.677457  0.397194
13.2764  0.447793  0.536305
13.9786  0.204623  0.660528
14.2577  0  0.714286
0  1.02375  1.3
1.50362  1.02374  1.02358
2.76818  1.02372  0.8598
3.84508  1.02369  0.77551
4.78591  1.02363  0.737624
5.66681  1.02352  0.720685
6.60971  1.02328  0.714111
7.65939  1.02159  0.711816
8.74595  1.01531  0.711624
9.79154  0.999546  0.712274
10.7277  0.966007  0.714323
11.6074  0.882629  0.73454
12.5472  0.70776  0.796813
13.4591  0.464532  0.885712
14.1493  0.209626  0.965432
14.4226  0  1
1.5147  1.04999  1.18301
2.78972  1.04997  1.05546
3.87635  1.04994  0.990966
4.82611  1.04988  0.963177
5.7155  1.04977  0.951897
6.66764  1.04953  0.948896
7.72782  1.0478  0.949401
8.82556  1.04137  0.951559
9.88229  1.02521  0.954236
10.829  0.990801  0.958152
11.7202  0.904919  0.982368
12.6754  0.724434  1.05399
13.6045  0.473784  1.15553
14.3085  0.212399  1.24637
14.5876  0  1.28571
1.51472  1.05  1.18311
2.78979  1.05  1.05587
3.87655  1.05  0.99198
4.82655  1.05  0.965168
5.7164  1.05  0.955617
6.66962  1.04997  0.956042
7.73174  1.04856  0.961954
8.83229  1.04252  0.970765
9.8925  1.02675  0.980507
10.8435  0.992633  0.991916
11.7468  0.906806  1.03603
12.7318  0.725957  1.15725
13.7016  0.474666  1.32673
14.4415  0.212671  1.47764
14.7361  0  1.54286
1.55905  1.05  1.82079
2.8759  1.05  1.83835
4.00154  1.05  1.85335
4.98717  1.05  1.8665
5.91078  1.05  1.87881
6.90047  1.04997  1.89201
8.0037  1.04856  1.90672
9.14773  1.04252  1.92197
10.251  1.02675  1.93668
11.2405  0.992633  1.94987
12.1621  0.906806  1.96216
13.1243  0.725957  1.97499
14.0419  0.474666  1.98723
14.7294  0.212671  1.99639
1  2  1
2  3  2
3  4  3
4  4  4
4  5  4
5  6  5
6  7  6
7  8  7
8  9  8
9  10  9
10  11  10
11  11  11
11  12  11
12  13  12
13  14  13
15  16  15
16  17  16
17  18  17
18  19  18
19  20  19
20  21  20
21  22  21
22  23  22
23  24  23
24  25  24
25  26  25
26  27  26
27  28  27
28  29  28
29  30  29
31  32  31
32  33  32
33  34  33
34  35  34
35  36  35
36  37  36
37  38  37
38  39  38
39  40  39
40  41  40
41  42  41
42  43  42
43  44  43
44  45  44
45  46  45
47  48  47
48  49  48
49  50  49
50  51  50
51  52  51
52  53  52
53  54  53
54  55  54
55  56  55
56  57  56
57  58  57
58  59  58
59  60  59
60  61  60
61  62  61
63  64  63
64  65  64
65  66  65
66  67  66
67  68  67
68  69  68
69  70  69
70  71  70
71  72  71
72  73  72
73  74  73
74  75  74
75  76  75
76  77  76
77  78  77
79  80  79
80  81  80
81  82  81
82  83  82
83  84  83
84  85  84
85  86  85
86  87  86
87  88  87
88  89  88
89  90  89
90  91  90
91  92  91
92  93  92
93  94  93
95  96  95
96  97  96
97  98  97
98  99  98
99  100  99
100  101  100
101  102  101
102  103  102
103  104  103
104  105  104
105  106  105
106  107  106
107  108  107
108  109  108
109  110  109
1  111  1
111  112  111
112  113  112
113  114  113
114  115  114
115  116  115
116  117  116
117  118  117
118  119  118
119  120  119
120  121  120
121  122  121
122  123  122
123  124  123
124  95  124
4  125  4
125  126  125
126  127  126
127  128  127
128  129  128
129  130  129
130  131  130
131  132  131
132  133  132
133  134  133
134  135  134
135  136  135
136  137  136
137  138  137
138  139  138
4  140  4
140  141  140
141  142  141
142  143  142
143  144  143
144  145  144
145  146  145
146  147  146
147  148  147
148  149  148
149  150  149
150  151  150
151  152  151
152  153  152
153  154  153
155  156  155
156  157  156
157  158  157
158  159  158
159  160  159
160  161  160
161  162  161
162  163  162
163  164  163
164  165  164
165  166  165
166  167  166
167  168  167
168  169  168
169  170  169
171  172  171
172  173  172
173  174  173
174  175  174
175  176  175
176  177  176
177  178  177
178  179  178
179  180  179
180  181  180
181  182  181
182  183  182
183  184  183
184  185  184
185  186  185
11  187  11
187  188  187
188  189  188
189  190  189
190  191  190
191  192  191
192  193  192
193  194  193
194  195  194
195  196  195
196  197  196
197  198  197
198  199  198
199  200  199
200  201  200
11  202  11
202  203  202
203  204  203
204  205  204
205  206  205
206  207  206
207  208  207
208  209  208
209  210  209
210  211  210
211  212  211
212  213  212
213  214  213
214  215  214
215  216  215
14  217  14
217  218  217
218  219  218
219  220  219
220  221  220
221  222  221
222  223  222
223  224  223
224  225  224
225  226  225
226  227  226
227  228  227
228  229  228
229  230  229
230  110  230
