 VARIABLES = X Y Z
 ZONE N = 900, E = 1682, DATAPACKING= POINT, ZONETYPE= FETRIANGLE
0.00200216  0.599997  -0.00285938
0.00227342  0.599996  -0.00242942
0.00229462  0.599996  -0.00213512
0.00225955  0.599996  -0.00187697
0.00218633  0.599996  -0.00164457
0.00210059  0.599996  -0.00142026
0.00199863  0.599997  -0.0012071
0.00188355  0.599997  -0.00100305
0.00175958  0.599997  -0.000805161
0.00162815  0.599998  -0.000612478
0.00149005  0.599998  -0.000424482
0.00134617  0.599998  -0.000240559
0.00119742  0.599999  -6.00721e-05
0.00104441  0.599999  0.000117402
0.000887462  0.599999  0.000292078
0.000726899  0.6  0.000464179
0.000563112  0.6  0.000633981
0.000396498  0.6  0.000801767
0.000227354  0.6  0.000967741
5.59042e-05  0.6  0.00113205
-0.000117661  0.6  0.00129483
-0.000293231  0.6  0.00145621
-0.000470698  0.6  0.00161629
-0.000649904  0.6  0.00177504
-0.000830707  0.599999  0.00193241
-0.0010134  0.599999  0.00208865
-0.00119841  0.599999  0.00224404
-0.00138425  0.599998  0.00239736
-0.00157119  0.599998  0.00254868
-0.00176606  0.599997  0.00270307
0.00257701  0.674357  -0.0034355
0.00276811  0.674357  -0.00297333
0.00272492  0.674357  -0.00263388
0.00263044  0.674357  -0.00232847
0.00250153  0.674358  -0.00204752
0.00236136  0.674358  -0.00177409
0.00220671  0.674359  -0.00151121
0.0020404  0.674359  -0.00125693
0.00186626  0.67436  -0.00100843
0.00168558  0.67436  -0.000764793
0.00149909  0.674361  -0.000525522
0.00130758  0.674361  -0.000290034
0.00111188  0.674361  -5.77188e-05
0.000912502  0.674362  0.000171807
0.000709691  0.674362  0.000398714
0.000503708  0.674362  0.000623188
0.000294906  0.674362  0.000845499
8.36493e-05  0.674362  0.00106593
-0.000129789  0.674362  0.00128467
-0.000345207  0.674362  0.00150186
-0.000562437  0.674362  0.00171764
-0.000781387  0.674362  0.00193214
-0.00100197  0.674362  0.00214544
-0.001224  0.674361  0.00235752
-0.00144734  0.674361  0.00256828
-0.00167233  0.67436  0.00277806
-0.00189949  0.67436  0.00298724
-0.00212698  0.674359  0.00319418
-0.00235513  0.674358  0.00339901
-0.00259216  0.674357  0.00360866
0.00323486  0.762428  -0.0040156
0.00334594  0.762428  -0.00351143
0.00323232  0.762428  -0.00312059
0.0030711  0.762429  -0.00276259
0.00287831  0.76243  -0.00242841
0.00267526  0.76243  -0.00210136
0.00245911  0.762431  -0.00178454
0.00223246  0.762432  -0.00147604
0.00199884  0.762432  -0.00117307
0.00175944  0.762433  -0.000874748
0.00151493  0.762433  -0.000580577
0.00126605  0.762434  -0.000289991
0.00101352  0.762434  -2.39209e-06
0.000757812  0.762435  0.000282574
0.000499089  0.762435  0.000565035
0.000237554  0.762435  0.000845146
-2.64667e-05  0.762435  0.00112317
-0.000292631  0.762435  0.00139941
-0.000560687  0.762435  0.00167404
-0.00083045  0.762435  0.0019472
-0.00110177  0.762434  0.00221903
-0.00137457  0.762434  0.00248966
-0.00164877  0.762433  0.00275919
-0.0019242  0.762433  0.00302755
-0.00220065  0.762432  0.00329464
-0.00247858  0.762431  0.00356086
-0.00275858  0.76243  0.00382673
-0.00303844  0.762429  0.00409013
-0.00331849  0.762428  0.00435127
-0.00360874  0.762426  0.00461905
0.00376269  0.838598  -0.00438671
0.00381447  0.838598  -0.00384764
0.00364395  0.838598  -0.00341764
0.00342759  0.838599  -0.00302018
0.00318116  0.8386  -0.00264649
0.00292497  0.838601  -0.00227979
0.00265642  0.838602  -0.00192323
0.00237801  0.838603  -0.00157493
0.00209311  0.838604  -0.00123208
0.00180284  0.838604  -0.000893776
0.00150787  0.838605  -0.000559539
0.00120889  0.838605  -0.000228794
0.000906591  0.838606  9.90525e-05
0.000601385  0.838606  0.000424342
0.000293405  0.838606  0.000747171
-1.71821e-05  0.838606  0.00106767
-0.000330066  0.838606  0.00138612
-0.000644915  0.838606  0.0017028
-0.000961488  0.838606  0.00201793
-0.00127961  0.838605  0.00233162
-0.00159914  0.838605  0.00264402
-0.00192001  0.838604  0.00295526
-0.00224216  0.838603  0.00326545
-0.00256538  0.838602  0.00357451
-0.00288946  0.838601  0.0038823
-0.00321492  0.8386  0.0041893
-0.00354246  0.838599  0.00449609
-0.00386946  0.838597  0.00480026
-0.00419633  0.838596  0.00510203
-0.00453468  0.838594  0.00541173
0.00427802  0.919301  -0.00469478
0.00426705  0.919301  -0.00412424
0.00403676  0.919302  -0.00365803
0.00376258  0.919303  -0.00322393
0.00345993  0.919304  -0.00281341
0.00314806  0.919305  -0.00240968
0.00282464  0.919306  -0.00201597
0.00249204  0.919307  -0.00163039
0.00215345  0.919308  -0.00125014
0.00180995  0.919309  -0.000874314
0.00146217  0.919309  -0.000502432
0.00111075  0.91931  -0.000133925
0.000756349  0.91931  0.000231797
0.000399336  0.919311  0.000595058
3.98017e-05  0.919311  0.000955921
-0.000322122  0.919311  0.0013145
-0.000686143  0.91931  0.00167106
-0.00105194  0.91931  0.00202591
-0.00141929  0.91931  0.00237925
-0.00178802  0.919309  0.0027312
-0.00215799  0.919308  0.00308191
-0.00252918  0.919307  0.00343152
-0.0029015  0.919306  0.00378014
-0.00327474  0.919305  0.00412766
-0.00364867  0.919303  0.00447394
-0.00402388  0.919302  0.0048195
-0.00440117  0.9193  0.00516503
-0.00477753  0.919298  0.00550778
-0.00515341  0.919296  0.00584802
-0.00554211  0.919294  0.00619742
0.00472801  0.999101  -0.00489928
0.00465819  0.999101  -0.00430217
0.00437087  0.999103  -0.0038056
0.00404128  0.999104  -0.00334079
0.00368461  0.999105  -0.00289943
0.00331916  0.999107  -0.00246469
0.00294284  0.999108  -0.00203985
0.00255794  0.999109  -0.00162304
0.00216746  0.99911  -0.00121144
0.00177247  0.999111  -0.000804153
0.00137354  0.999111  -0.000400703
0.000971306  0.999112  -5.18865e-07
0.000566379  0.999112  0.000396987
0.00015909  0.999112  0.000792118
-0.000250505  0.999112  0.00118491
-0.000662303  0.999112  0.00157545
-0.00107602  0.999112  0.00196401
-0.00149136  0.999111  0.00235091
-0.0019081  0.99911  0.00273635
-0.00232608  0.999109  0.00312045
-0.00274517  0.999108  0.00350335
-0.00316534  0.999107  0.00388519
-0.00358655  0.999106  0.0042661
-0.00400854  0.999104  0.00464596
-0.00443106  0.999102  0.00502459
-0.00485479  0.9991  0.00540259
-0.0052806  0.999098  0.00578068
-0.00570513  0.999096  0.00615588
-0.00612885  0.999093  0.00652848
-0.00656672  0.999091  0.00691128
0.00510953  1.07879  -0.00501276
0.00498371  1.07879  -0.00439359
0.00464166  1.07879  -0.00387176
0.00425877  1.07879  -0.00338138
0.00385005  1.07879  -0.0029143
0.00343294  1.0788  -0.00245368
0.00300556  1.0788  -0.00200286
0.00257014  1.0788  -0.00155995
0.00212952  1.0788  -0.00112215
0.00168473  1.0788  -0.000688558
0.00123632  1.0788  -0.000258688
0.000784893  1.0788  0.000168023
0.000331028  1.0788  0.000592158
-0.000124977  1.0788  0.00101401
-0.000583094  1.0788  0.00143357
-0.00104325  1.0788  0.00185092
-0.00150517  1.0788  0.00226634
-0.00196857  1.0788  0.00268013
-0.00243322  1.0788  0.00309251
-0.00289899  1.0788  0.00350359
-0.00336576  1.0788  0.00391352
-0.00383351  1.07879  0.00432244
-0.00430218  1.07879  0.00473049
-0.00477153  1.07879  0.00513752
-0.00524127  1.07879  0.00554335
-0.00571214  1.07879  0.00594861
-0.00618513  1.07878  0.0063541
-0.00665648  1.07878  0.00675659
-0.00712673  1.07878  0.00715642
-0.00761242  1.07877  0.00756734
0.00541644  1.15866  -0.00504349
0.00523719  1.15866  -0.00440644
0.00484273  1.15866  -0.00386394
0.00440876  1.15867  -0.00335259
0.00395011  1.15867  -0.00286438
0.00348342  1.15867  -0.00238247
0.00300703  1.15867  -0.00191025
0.00252307  1.15867  -0.00144584
0.00203427  1.15867  -0.000986419
0.0015416  1.15867  -0.000531092
0.00104562  1.15867  -7.93818e-05
0.000546869  1.15867  0.000369274
4.59143e-05  1.15867  0.000815457
-0.00045698  1.15867  0.00125944
-0.000961811  1.15867  0.0017012
-0.00146852  1.15867  0.00214078
-0.00197686  1.15867  0.00257846
-0.00248655  1.15867  0.00301457
-0.00299737  1.15867  0.00344931
-0.0035092  1.15867  0.0038828
-0.00402191  1.15867  0.00431518
-0.0045355  1.15867  0.00474661
-0.00504994  1.15866  0.0051772
-0.00556494  1.15866  0.00560682
-0.0060802  1.15866  0.00603528
-0.00659654  1.15866  0.00646322
-0.00711503  1.15865  0.00689151
-0.00763155  1.15865  0.00731673
-0.00814668  1.15865  0.00773923
-0.00867852  1.15864  0.00817356
0.00563888  1.23845  -0.0049947
0.00540931  1.23845  -0.00434374
0.00496535  1.23845  -0.00378498
0.00448308  1.23846  -0.00325706
0.00397717  1.23846  -0.00275214
0.00346355  1.23846  -0.00225338
0.00294074  1.23846  -0.00176418
0.0024108  1.23846  -0.00128269
0.00187633  1.23846  -0.000806074
0.00133827  1.23846  -0.000333446
0.000797155  1.23846  0.000135671
0.000253511  1.23846  0.000601837
-0.000292137  1.23846  0.00106563
-0.000839545  1.23846  0.0015273
-0.00138873  1.23846  0.00198681
-0.00193966  1.23846  0.00244418
-0.00249209  1.23846  0.00289969
-0.00304575  1.23846  0.00335367
-0.00360044  1.23846  0.00380633
-0.00415602  1.23846  0.00425778
-0.0047124  1.23846  0.00470817
-0.00526957  1.23845  0.00515765
-0.00582751  1.23845  0.00560634
-0.00638591  1.23845  0.0060541
-0.00694447  1.23845  0.00650073
-0.00750405  1.23844  0.00694691
-0.00806582  1.23844  0.00739352
-0.00862531  1.23843  0.00783701
-0.00918315  1.23843  0.00827776
-0.00975891  1.23843  0.00873094
0.00577055  1.31826  -0.00487253
0.00549382  1.31826  -0.00421131
0.00500342  1.31827  -0.00364029
0.00447583  1.31827  -0.00309983
0.00392558  1.31827  -0.0025822
0.00336791  1.31827  -0.0020706
0.00280151  1.31827  -0.00156844
0.00222839  1.31827  -0.00107386
0.00165103  1.31827  -0.000584068
0.00107033  1.31828  -9.81529e-05
0.000486794  1.31828  0.000384354
-9.90525e-05  1.31828  0.00086401
-0.000686721  1.31828  0.00134139
-0.00127599  1.31828  0.00181673
-0.00186689  1.31827  0.00228996
-0.00245941  1.31827  0.00276108
-0.00305332  1.31827  0.00323039
-0.00364834  1.31827  0.00369822
-0.00424431  1.31827  0.00416476
-0.00484107  1.31827  0.00463015
-0.00543854  1.31826  0.00509451
-0.00603673  1.31826  0.005558
-0.00663562  1.31826  0.00602076
-0.00723489  1.31826  0.00648263
-0.0078342  1.31825  0.00694338
-0.0084345  1.31825  0.00740375
-0.00903702  1.31824  0.00786463
-0.009637  1.31824  0.00832237
-0.0102351  1.31824  0.00877733
-0.0108522  1.31823  0.00924523
0.00580474  1.39807  -0.00468176
0.00548419  1.39808  -0.00401362
0.00495069  1.39808  -0.00343401
0.00438106  1.39808  -0.00288471
0.00378966  1.39808  -0.00235806
0.0031911  1.39808  -0.0018373
0.00258426  1.39808  -0.00132587
0.00197105  1.39808  -0.000821911
0.00135387  1.39809  -0.000322629
0.000733561  1.39809  0.000172873
0.00011064  1.39809  0.000665066
-0.000514409  1.39809  0.0011545
-0.00114112  1.39809  0.00164175
-0.00176928  1.39809  0.00212704
-0.00239895  1.39808  0.00261027
-0.00303013  1.39808  0.00309144
-0.00366258  1.39808  0.00357083
-0.00429606  1.39808  0.00404877
-0.00493039  1.39808  0.00452548
-0.00556544  1.39808  0.00500108
-0.00620112  1.39807  0.00547568
-0.00683745  1.39807  0.00594946
-0.00747442  1.39807  0.00642255
-0.00811169  1.39806  0.00689479
-0.00874892  1.39806  0.00736594
-0.00938709  1.39805  0.00783676
-0.0100275  1.39805  0.00830816
-0.0106652  1.39805  0.0087764
-0.0113006  1.39804  0.00924187
-0.0119563  1.39804  0.00972063
0.00573535  1.47788  -0.00442689
0.00537447  1.47788  -0.0037549
0.00480145  1.47789  -0.00317008
0.00419326  1.47789  -0.0026153
0.00356415  1.47789  -0.00208299
0.00292812  1.47789  -0.00155645
0.00228421  1.47789  -0.00103912
0.00163426  1.47789  -0.000529153
0.000980568  1.47789  -2.37653e-05
0.000323959  1.47789  0.000477939
-0.000335077  1.47789  0.000976428
-0.000996072  1.47789  0.00147225
-0.00165858  1.47789  0.00196597
-0.00232242  1.47789  0.0024578
-0.00298766  1.47789  0.00294762
-0.00365428  1.47789  0.00343542
-0.0043221  1.47789  0.00392148
-0.00499086  1.47789  0.00440613
-0.00566038  1.47788  0.00488959
-0.00633056  1.47788  0.00537198
-0.00700129  1.47788  0.00585341
-0.00767262  1.47787  0.00633405
-0.00834454  1.47787  0.00681405
-0.00901669  1.47787  0.00729322
-0.00968871  1.47786  0.00777136
-0.0103617  1.47786  0.00824919
-0.0110369  1.47785  0.00872766
-0.0117091  1.47785  0.00920298
-0.0123789  1.47784  0.00967553
-0.0130699  1.47784  0.0101616
0.00555673  1.55769  -0.00411209
0.00515914  1.55769  -0.00343904
0.00455033  1.5577  -0.00285206
0.00390728  1.5577  -0.00229486
0.0032441  1.5577  -0.00175994
0.00257421  1.5577  -0.00123069
0.0018968  1.5577  -0.000710521
0.00121367  1.5577  -0.00019762
0.000527002  1.5577  0.0003108
-0.000162399  1.5577  0.000815626
-0.000854059  1.5577  0.00131732
-0.00154753  1.5577  0.00181644
-0.00224239  1.5577  0.00231353
-0.00293847  1.5577  0.00280879
-0.00363583  1.5577  0.00330211
-0.0043345  1.5577  0.00379343
-0.00503426  1.55769  0.00428304
-0.0057349  1.55769  0.00477129
-0.00643623  1.55769  0.00525839
-0.00713815  1.55769  0.00574444
-0.00784057  1.55768  0.00622958
-0.00854353  1.55768  0.00671397
-0.00924703  1.55768  0.00719774
-0.00995071  1.55767  0.00768073
-0.0106542  1.55767  0.0081627
-0.0113586  1.55766  0.00864441
-0.0120653  1.55766  0.00912681
-0.0127687  1.55765  0.00960607
-0.0134696  1.55764  0.0100826
-0.0141926  1.55764  0.0105728
0.00526347  1.6375  -0.00374102
0.0048329  1.6375  -0.00306942
0.0041922  1.63751  -0.00248303
0.00351815  1.63751  -0.00192618
0.00282471  1.63751  -0.00139142
0.00212475  1.63751  -0.000862234
0.00141761  1.63751  -0.000342015
0.000705034  1.63751  0.000171041
-1.08903e-05  1.63751  0.000679703
-0.000729387  1.63751  0.00118485
-0.00144999  1.63751  0.00168696
-0.00217228  1.63751  0.00218656
-0.00289584  1.63751  0.0026842
-0.00362052  1.63751  0.00318007
-0.0043464  1.63751  0.00367405
-0.00507349  1.6375  0.00416606
-0.00580161  1.6375  0.0046564
-0.00653053  1.6375  0.00514542
-0.00726009  1.6375  0.00563331
-0.00799017  1.63749  0.00612019
-0.0087207  1.63749  0.00660619
-0.00945173  1.63748  0.00709148
-0.0101833  1.63748  0.00757617
-0.0109149  1.63748  0.00806012
-0.0116463  1.63747  0.00854308
-0.0123786  1.63746  0.00902581
-0.0131132  1.63746  0.00950926
-0.0138444  1.63745  0.00998959
-0.0145729  1.63745  0.0104672
-0.0153242  1.63744  0.0109586
0.0048504  1.71731  -0.00331681
0.00439067  1.71731  -0.00264894
0.00372214  1.71732  -0.00206564
0.00302109  1.71732  -0.00151164
0.00230133  1.71732  -0.000979534
0.00157525  1.71732  -0.000452909
0.000842298  1.71732  6.48522e-05
0.00010416  1.71732  0.000575549
-0.000637152  1.71732  0.00108193
-0.00138089  1.71732  0.00158488
-0.00212661  1.71732  0.00208485
-0.00287389  1.71732  0.00258239
-0.00362235  1.71732  0.00307803
-0.00437184  1.71731  0.00357196
-0.00512245  1.71731  0.00406403
-0.00587419  1.71731  0.00455417
-0.00662689  1.71731  0.00504267
-0.00738034  1.7173  0.00552987
-0.00813437  1.7173  0.00601599
-0.00888887  1.7173  0.00650113
-0.00964378  1.71729  0.0069854
-0.0103992  1.71729  0.007469
-0.011155  1.71728  0.00795203
-0.0119109  1.71728  0.00843434
-0.0126665  1.71727  0.00891569
-0.0134229  1.71727  0.00939684
-0.0141818  1.71726  0.00987873
-0.0149371  1.71725  0.0103575
-0.0156895  1.71725  0.0108337
-0.0164654  1.71724  0.0113235
0.00431257  1.79712  -0.00284212
0.00382757  1.79712  -0.00218002
0.00313534  1.79712  -0.00160204
0.00241141  1.79713  -0.00105313
0.00166942  1.79713  -0.00052592
0.00092128  1.79713  -4.1135e-06
0.000166546  1.79713  0.000508934
-0.000593137  1.79713  0.00101501
-0.00135584  1.79713  0.00151684
-0.00212084  1.79713  0.00201531
-0.0028877  1.79712  0.00251086
-0.00365603  1.79712  0.00300404
-0.00442545  1.79712  0.00349537
-0.00519583  1.79712  0.00398505
-0.00596726  1.79712  0.00447289
-0.00673975  1.79711  0.00495885
-0.00751314  1.79711  0.00544318
-0.00828722  1.79711  0.00592625
-0.00906183  1.7971  0.00640826
-0.00983688  1.7971  0.00688932
-0.0106123  1.7971  0.00736954
-0.0113881  1.79709  0.0078491
-0.0121644  1.79709  0.00832813
-0.0129408  1.79708  0.00880645
-0.0137167  1.79707  0.00928384
-0.0144935  1.79707  0.00976105
-0.0152727  1.79706  0.010239
-0.0160482  1.79706  0.0107139
-0.0168208  1.79705  0.0111862
-0.0176174  1.79704  0.0116722
0.00364476  1.87693  -0.00231886
0.00313848  1.87693  -0.00166433
0.00242683  1.87693  -0.00109365
0.00168426  1.87693  -0.000551817
0.000924242  1.87693  -3.14981e-05
0.000158237  1.87693  0.000483483
-0.000614107  1.87693  0.0009898
-0.00139119  1.87693  0.00148923
-0.00217116  1.87693  0.00198447
-0.00295331  1.87693  0.00247641
-0.00373723  1.87693  0.00296548
-0.00452252  1.87693  0.00345223
-0.00530884  1.87693  0.00393717
-0.00609606  1.87692  0.00442049
-0.00688425  1.87692  0.00490202
-0.00767346  1.87692  0.00538167
-0.00846351  1.87692  0.00585974
-0.0092542  1.87691  0.00633656
-0.0100454  1.87691  0.00681235
-0.010837  1.8769  0.0072872
-0.0116289  1.8769  0.00776124
-0.0124212  1.87689  0.00823463
-0.013214  1.87689  0.0087075
-0.0140067  1.87688  0.00917969
-0.0147991  1.87688  0.00965098
-0.0155923  1.87687  0.0101221
-0.0163879  1.87686  0.010594
-0.0171797  1.87686  0.0110628
-0.0179684  1.87685  0.0115291
-0.0187817  1.87684  0.0120089
0.00284238  1.95674  -0.0017487
0.00231884  1.95674  -0.00110332
0.0015921  1.95674  -0.000541674
0.000835205  1.95674  -8.6557e-06
6.14245e-05  1.95674  0.000503025
-0.000718191  1.95674  0.00100942
-0.00150391  1.95674  0.00150723
-0.00229418  1.95674  0.00199822
-0.00308722  1.95674  0.00248507
-0.00388235  1.95674  0.00296866
-0.00467915  1.95674  0.00344942
-0.00547727  1.95673  0.00392789
-0.00627636  1.95673  0.00440458
-0.0070763  1.95673  0.00487968
-0.00787716  1.95672  0.005353
-0.00867898  1.95672  0.00582447
-0.0094816  1.95672  0.00629438
-0.0102848  1.95671  0.00676306
-0.0110885  1.95671  0.00723071
-0.0118926  1.9567  0.00769744
-0.012697  1.9567  0.00816338
-0.0135017  1.95669  0.00862868
-0.0143069  1.95669  0.00909347
-0.015112  1.95668  0.00955759
-0.0159167  1.95668  0.0100208
-0.0167223  1.95667  0.0104839
-0.0175303  1.95666  0.0109477
-0.0183343  1.95665  0.0114086
-0.0191353  1.95665  0.0118669
-0.0199612  1.95664  0.0123385
0.00190026  2.03655  -0.00113241
0.00136348  2.03655  -0.000497613
0.000626039  2.03655  5.34499e-05
-0.000140826  2.03655  0.000576078
-0.000924037  2.03655  0.00107754
-0.00171295  2.03655  0.00157375
-0.00250774  2.03654  0.00206145
-0.00330693  2.03654  0.00254239
-0.00410877  2.03654  0.00301924
-0.00491263  2.03654  0.00349283
-0.0057181  2.03654  0.00396363
-0.00652482  2.03654  0.00443216
-0.00733247  2.03653  0.00489892
-0.00814093  2.03653  0.0053641
-0.00895027  2.03653  0.00582753
-0.00976053  2.03652  0.00628912
-0.0105715  2.03652  0.00674916
-0.0113831  2.03651  0.00720798
-0.0121952  2.03651  0.00766578
-0.0130076  2.0365  0.00812268
-0.0138202  2.0365  0.00857878
-0.0146333  2.03649  0.00903426
-0.0154467  2.03649  0.00948923
-0.0162601  2.03648  0.00994354
-0.0170731  2.03647  0.010397
-0.0178868  2.03647  0.0108502
-0.0187031  2.03646  0.0113042
-0.0195154  2.03645  0.0117553
-0.0203245  2.03644  0.0122039
-0.0211587  2.03644  0.0126655
0.000807016  2.11635  -0.000466634
0.000261415  2.11635  0.00015611
-0.000481934  2.11635  0.000694961
-0.00125397  2.11635  0.00120556
-0.00204184  2.11635  0.00169516
-0.00283528  2.11635  0.00217953
-0.00363441  2.11635  0.00265545
-0.00443778  2.11635  0.00312466
-0.00524372  2.11635  0.00358979
-0.00605161  2.11634  0.00405169
-0.00686105  2.11634  0.00451081
-0.0076717  2.11634  0.00496766
-0.00848325  2.11633  0.00542275
-0.00929558  2.11633  0.00587626
-0.0101088  2.11633  0.00632802
-0.0109228  2.11632  0.00677797
-0.0117376  2.11632  0.00722637
-0.0125529  2.11631  0.00767356
-0.0133687  2.11631  0.00811974
-0.0141848  2.1163  0.00856501
-0.0150011  2.1163  0.00900949
-0.0158179  2.11629  0.00945334
-0.016635  2.11629  0.00989669
-0.017452  2.11628  0.0103394
-0.0182686  2.11627  0.0107812
-0.0190861  2.11627  0.0112228
-0.019906  2.11626  0.0116651
-0.0207218  2.11625  0.0121046
-0.0215345  2.11624  0.0125417
-0.0223725  2.11623  0.0129913
-0.000450094  2.19615  0.000252956
-0.000999721  2.19615  0.000862098
-0.00174367  2.19615  0.00138701
-0.00251557  2.19615  0.00188383
-0.00330282  2.19615  0.00235982
-0.00409552  2.19615  0.00283058
-0.00489373  2.19615  0.00329294
-0.00569604  2.19615  0.00374862
-0.00650085  2.19615  0.00420024
-0.00730755  2.19614  0.00464864
-0.00811576  2.19614  0.00509425
-0.00892514  2.19614  0.00553758
-0.0097354  2.19613  0.00597915
-0.0105464  2.19613  0.00641913
-0.0113583  2.19613  0.00685737
-0.0121709  2.19612  0.0072938
-0.0129843  2.19612  0.00772869
-0.0137983  2.19611  0.00816236
-0.0146126  2.19611  0.00859503
-0.0154273  2.1961  0.00902678
-0.0162422  2.19609  0.00945775
-0.0170575  2.19609  0.00988807
-0.0178731  2.19608  0.0103179
-0.0186887  2.19608  0.010747
-0.0195039  2.19607  0.0111753
-0.0203198  2.19606  0.0116034
-0.0211382  2.19605  0.0120321
-0.0219527  2.19605  0.0124581
-0.0227639  2.19604  0.0128816
-0.0236003  2.19603  0.0133174
-0.00188462  2.27596  0.00103119
-0.00243305  2.27596  0.00162511
-0.00317181  2.27596  0.00213425
-0.00393777  2.27596  0.00261546
-0.00471862  2.27595  0.00307598
-0.00550478  2.27595  0.00353126
-0.0062963  2.27595  0.00397818
-0.0070918  2.27595  0.00441845
-0.00788973  2.27595  0.00485466
-0.00868951  2.27594  0.00528763
-0.00949076  2.27594  0.0057178
-0.0102932  2.27594  0.00614568
-0.0110964  2.27593  0.00657178
-0.0119005  2.27593  0.00699627
-0.0127053  2.27592  0.00741901
-0.0135109  2.27592  0.00783995
-0.0143172  2.27591  0.00825935
-0.0151241  2.27591  0.00867753
-0.0159313  2.2759  0.0090947
-0.0167389  2.2759  0.00951094
-0.0175467  2.27589  0.00992639
-0.0183549  2.27589  0.0103412
-0.0191634  2.27588  0.0107554
-0.019972  2.27587  0.011169
-0.02078  2.27586  0.0115818
-0.0215889  2.27586  0.0119943
-0.0224002  2.27585  0.0124074
-0.0232075  2.27584  0.0128178
-0.0240117  2.27583  0.0132258
-0.0248408  2.27582  0.0136456
-0.00351048  2.35576  0.0018734
-0.0040521  2.35576  0.00245039
-0.00477938  2.35576  0.00294185
-0.00553309  2.35576  0.0034055
-0.00630125  2.35575  0.0038486
-0.00707459  2.35575  0.00428642
-0.00785315  2.35575  0.00471592
-0.00863557  2.35575  0.00513879
-0.00942038  2.35574  0.00555758
-0.010207  2.35574  0.0059731
-0.0109951  2.35574  0.00638581
-0.0117843  2.35573  0.00679619
-0.0125744  2.35573  0.00720476
-0.0133652  2.35573  0.00761169
-0.0141568  2.35572  0.00801686
-0.0149492  2.35572  0.00842023
-0.0157422  2.35571  0.00882205
-0.0165358  2.3557  0.00922265
-0.0173298  2.3557  0.00962222
-0.0181241  2.35569  0.0100209
-0.0189187  2.35569  0.0104187
-0.0197136  2.35568  0.0108158
-0.0205089  2.35567  0.0112124
-0.0213042  2.35567  0.0116083
-0.022099  2.35566  0.0120034
-0.0228946  2.35565  0.0123982
-0.0236927  2.35564  0.0127935
-0.0244868  2.35564  0.0131862
-0.0252778  2.35563  0.0135766
-0.0260934  2.35562  0.0139782
-0.00534347  2.43554  0.00278633
-0.00587215  2.43554  0.00334457
-0.00658107  2.43554  0.00381626
-0.00731563  2.43553  0.00426024
-0.00806419  2.43553  0.00468378
-0.00881782  2.43553  0.00510202
-0.00957653  2.43553  0.00551194
-0.010339  2.43552  0.00591523
-0.0111038  2.43552  0.00631441
-0.0118704  2.43552  0.0067103
-0.0126385  2.43551  0.00710333
-0.0134077  2.43551  0.00749399
-0.0141777  2.4355  0.00788279
-0.0149485  2.4355  0.00826992
-0.0157201  2.43549  0.00865527
-0.0164925  2.43549  0.00903881
-0.0172655  2.43548  0.0094208
-0.018039  2.43548  0.00980154
-0.018813  2.43547  0.0101812
-0.0195872  2.43547  0.01056
-0.0203617  2.43546  0.0109379
-0.0211366  2.43545  0.0113151
-0.0219119  2.43545  0.0116918
-0.0226871  2.43544  0.0120677
-0.023462  2.43543  0.0124427
-0.0242376  2.43542  0.0128175
-0.0250156  2.43542  0.0131927
-0.0257898  2.43541  0.0135654
-0.026561  2.4354  0.0139358
-0.0273562  2.43539  0.0143168
-0.00741894  2.5154  0.00378614
-0.00792725  2.51539  0.00432327
-0.0086094  2.51539  0.00477251
-0.00931634  2.51539  0.00519409
-0.0100369  2.51539  0.00559534
-0.0107623  2.51538  0.00599122
-0.0114927  2.51538  0.00637879
-0.0122268  2.51538  0.0067597
-0.0129632  2.51537  0.00713647
-0.0137014  2.51537  0.0075099
-0.014441  2.51537  0.00788041
-0.0151818  2.51536  0.00824849
-0.0159234  2.51536  0.00861465
-0.0166658  2.51535  0.00897909
-0.017409  2.51535  0.00934172
-0.018153  2.51534  0.00970254
-0.0188976  2.51534  0.0100618
-0.0196427  2.51533  0.0104198
-0.0203883  2.51532  0.0107767
-0.0211341  2.51532  0.0111326
-0.0218803  2.51531  0.0114877
-0.0226268  2.5153  0.011842
-0.0233737  2.5153  0.0121958
-0.0241206  2.51529  0.0125488
-0.0248672  2.51528  0.0129009
-0.0256145  2.51528  0.0132527
-0.0263641  2.51527  0.0136048
-0.0271101  2.51526  0.0139545
-0.0278532  2.51525  0.014302
-0.0286195  2.51524  0.0146593
-0.00973706  2.59506  0.00487357
-0.0102176  2.59506  0.00538735
-0.0108646  2.59506  0.00581154
-0.0115355  2.59506  0.00620808
-0.0122195  2.59505  0.00658439
-0.0129084  2.59505  0.00695523
-0.0136021  2.59505  0.00731775
-0.0142994  2.59504  0.00767359
-0.014999  2.59504  0.00802523
-0.0157003  2.59503  0.00837346
-0.0164031  2.59503  0.00871869
-0.0171071  2.59502  0.00906143
-0.017812  2.59502  0.00940218
-0.0185176  2.59502  0.00974113
-0.0192241  2.59501  0.0100783
-0.0199313  2.595  0.0104135
-0.0206392  2.595  0.0107472
-0.0213476  2.59499  0.0110796
-0.0220564  2.59499  0.0114109
-0.0227656  2.59498  0.0117412
-0.023475  2.59498  0.0120706
-0.0241849  2.59497  0.0123993
-0.0248951  2.59496  0.0127272
-0.0256054  2.59496  0.0130545
-0.0263154  2.59495  0.0133808
-0.0270261  2.59494  0.0137067
-0.027739  2.59493  0.0140328
-0.0284486  2.59493  0.0143566
-0.0291554  2.59492  0.0146784
-0.0298842  2.59491  0.015009
-0.0123767  2.67484  0.00608561
-0.0128189  2.67484  0.00657238
-0.0134186  2.67484  0.00696729
-0.0140412  2.67483  0.00733452
-0.0146765  2.67483  0.00768156
-0.0153164  2.67483  0.00802303
-0.0159611  2.67482  0.00835613
-0.0166094  2.67482  0.0086825
-0.01726  2.67481  0.00900459
-0.0179123  2.67481  0.00932318
-0.0185661  2.6748  0.0096387
-0.0192211  2.6748  0.00995162
-0.019877  2.6748  0.0102624
-0.0205337  2.67479  0.0105714
-0.0211913  2.67479  0.0108785
-0.0218496  2.67478  0.0111837
-0.0225086  2.67477  0.0114873
-0.0231681  2.67477  0.0117896
-0.0238281  2.67476  0.0120907
-0.0244884  2.67476  0.0123908
-0.0251491  2.67475  0.01269
-0.0258102  2.67474  0.0129883
-0.0264717  2.67474  0.0132859
-0.0271332  2.67473  0.0135828
-0.0277945  2.67472  0.0138787
-0.0284565  2.67472  0.0141741
-0.0291207  2.67471  0.0144697
-0.0297817  2.6747  0.014763
-0.0304402  2.6747  0.0150543
-0.0311193  2.67469  0.0153536
-0.0154949  2.7555  0.00749542
-0.0158815  2.7555  0.00794859
-0.016414  2.7555  0.00830658
-0.0169683  2.7555  0.00863674
-0.0175348  2.75549  0.00894672
-0.0181058  2.75549  0.00925095
-0.0186814  2.75549  0.00954674
-0.0192605  2.75548  0.00983573
-0.0198419  2.75548  0.0101203
-0.0204252  2.75547  0.0104013
-0.0210099  2.75547  0.010679
-0.0215959  2.75546  0.0109541
-0.0221829  2.75546  0.0112269
-0.0227707  2.75545  0.0114978
-0.0233594  2.75545  0.0117667
-0.0239488  2.75544  0.0120337
-0.024539  2.75544  0.0122991
-0.0251297  2.75543  0.0125631
-0.0257209  2.75543  0.0128259
-0.0263125  2.75542  0.0130875
-0.0269044  2.75542  0.0133482
-0.0274968  2.75541  0.0136081
-0.0280896  2.75541  0.0138671
-0.0286825  2.7554  0.0141253
-0.0292753  2.75539  0.0143826
-0.0298688  2.75539  0.0146393
-0.0304642  2.75538  0.0148959
-0.0310569  2.75537  0.0151504
-0.0316474  2.75537  0.015403
-0.0322565  2.75536  0.0156624
-0.0185854  2.83164  0.0088766
-0.0189182  2.83163  0.00929837
-0.0193859  2.83163  0.0096219
-0.0198743  2.83163  0.00991746
-0.0203744  2.83162  0.0101928
-0.0208789  2.83162  0.0104623
-0.021388  2.83162  0.0107233
-0.0219005  2.83161  0.0109773
-0.0224153  2.83161  0.0112269
-0.0229319  2.8316  0.0114727
-0.0234501  2.8316  0.0117152
-0.0239696  2.8316  0.0119549
-0.0244902  2.83159  0.0121922
-0.0250116  2.83159  0.0124275
-0.0255339  2.83158  0.0126607
-0.0260571  2.83158  0.012892
-0.0265809  2.83157  0.0131216
-0.0271053  2.83157  0.0133498
-0.0276303  2.83156  0.0135768
-0.0281556  2.83156  0.0138026
-0.0286814  2.83155  0.0140273
-0.0292076  2.83155  0.0142511
-0.0297343  2.83154  0.0144741
-0.0302611  2.83154  0.0146961
-0.0307878  2.83153  0.0149172
-0.0313153  2.83152  0.0151377
-0.0318446  2.83152  0.0153579
-0.0323714  2.83151  0.0155762
-0.0328965  2.83151  0.0157926
-0.033438  2.8315  0.0160146
-0.0238211  2.91965  0.0112186
-0.024012  2.91965  0.0115703
-0.0243122  2.91964  0.0118146
-0.0246309  2.91964  0.0120302
-0.0249606  2.91964  0.0122254
-0.0252943  2.91964  0.0124142
-0.0256325  2.91963  0.0125943
-0.0259742  2.91963  0.0127672
-0.0263182  2.91963  0.0129353
-0.0266642  2.91962  0.0130994
-0.0270118  2.91962  0.0132599
-0.0273608  2.91962  0.0134173
-0.0277111  2.91961  0.0135721
-0.0280623  2.91961  0.0137245
-0.0284145  2.91961  0.0138749
-0.0287676  2.9196  0.0140232
-0.0291215  2.9196  0.0141697
-0.029476  2.9196  0.0143147
-0.0298311  2.91959  0.0144583
-0.0301868  2.91959  0.0146006
-0.0305429  2.91959  0.0147417
-0.0308995  2.91958  0.0148818
-0.0312566  2.91958  0.015021
-0.0316141  2.91957  0.0151591
-0.0319716  2.91957  0.0152962
-0.0323298  2.91957  0.0154324
-0.0326894  2.91956  0.0155681
-0.0330476  2.91956  0.0157021
-0.0334047  2.91955  0.0158345
-0.0337732  2.91955  0.0159698
1  2  32
1  32  31
31  32  62
31  62  61
61  62  92
61  92  91
91  92  122
91  122  121
121  122  152
121  152  151
151  152  182
151  182  181
181  182  212
181  212  211
211  212  242
211  242  241
241  242  272
241  272  271
271  272  302
271  302  301
301  302  332
301  332  331
331  332  362
331  362  361
361  362  392
361  392  391
391  392  422
391  422  421
421  422  452
421  452  451
451  452  482
451  482  481
481  482  512
481  512  511
511  512  542
511  542  541
541  542  572
541  572  571
571  572  602
571  602  601
601  602  632
601  632  631
631  632  662
631  662  661
661  662  692
661  692  691
691  692  722
691  722  721
721  722  752
721  752  751
751  752  782
751  782  781
781  782  812
781  812  811
811  812  842