 VARIABLES = X Y Z
 ZONE N = 3490, E = 6868, DATAPACKING= POINT, ZONETYPE= FETRIANGLE
0  0  20
0  0  35
0  9.1875  20
0  9.50562  20.0009
0  11.8661  20.0639
0  13.5427  20.1775
0  15.0688  20.3423
0  16.7385  20.6097
0  17.9808  20.8909
0  19.0971  21.2352
0  19.8743  21.5583
0  20.5227  21.9231
0  20.9353  22.2454
0  21.2411  22.5945
0  21.4021  22.8959
0  21.4724  23.1586
0  21.4798  23.4493
0  21.4328  23.6915
0  21.324  23.9655
0  21.1207  24.2913
0  20.8145  24.6423
0  20.5625  24.875
0  17.5  27.5
0  16.8346  28.0501
0  15.0672  29.3528
0  14.1217  29.9754
0  12.0255  31.2103
0  11.057  31.7216
0  8.82066  32.7729
0  7.83822  33.1796
0  5.67781  33.9539
0  4.77283  34.2264
0  2.87128  34.6861
0  2.10987  34.8209
0  1.32313  34.9249
0  0  35
0  0  35
160  0  0
8.52159  0  19.6948
15.2132  0  19.1242
20.0511  0  18.421
25.6604  0  17.2499
38.1396  0  14.094
69.698  0  5.72596
81.2967  0  2.79336
87.8056  0  1.45646
93.28  0  0.684086
98.7451  0  0.282674
108.416  0  0.0489902
129.356  0  0.000707174
160  0  20
160  0  0
160  1.8535  0.173275
160  2.97962  0.454223
160  3.74824  0.729038
160  4.80514  1.23013
160  5.37147  1.56511
160  6.31189  2.24371
160  6.80428  2.67185
160  7.60075  3.50164
160  8.1228  4.16732
160  8.73329  5.1287
160  9.11035  5.87671
160  9.51666  6.92864
160  9.73845  7.72786
160  9.93104  8.82762
160  9.93699  8.87922
160  10  10
160  10  10
160  10  10
160  9.82673  11.8535
160  9.40039  13.4107
160  9.27096  13.7482
160  8.62108  15.0672
160  8.43489  15.3715
160  7.5642  16.5409
160  7.32815  16.8043
160  6.1135  17.9136
160  5.83268  18.1228
160  4.43667  18.9619
160  4.12329  19.1103
160  2.6051  19.6547
160  2.27214  19.7384
160  1.31032  19.9138
160  1.12078  19.937
160  0  20
160  0  20
8.52159  0  34.6948
15.2132  0  34.1242
20.0511  0  33.421
25.6604  0  32.2499
33.9359  0  30.1123
38.8887  0  28.5834
43.8445  0  26.7147
49.3403  0  24.2624
66.7466  0  16.1572
72.2849  0  13.6635
76.0978  0  12.255
79.2789  0  11.4325
82.3098  0  10.9872
85.1168  0  10.8878
88.4048  0  11.1321
92.2672  0  11.7842
97.4361  0  13.0185
104.258  0  14.9903
115.186  0  18.3416
118.958  0  19.18
122.888  0  19.6773
127.693  0  19.9343
141.866  0  20.0001
8.52159  10.207  19.6956
8.52159  12.6912  19.7738
8.52159  14.2913  19.9017
8.52159  15.3437  20.0269
8.52159  16.7798  20.2645
8.52159  17.9219  20.5273
8.52159  18.955  20.849
8.52159  19.6805  21.1509
8.52159  20.2929  21.4918
8.52159  20.6893  21.7931
8.52159  20.9913  22.1193
8.52159  21.1592  22.4009
8.52159  21.2696  22.8511
8.52159  21.2462  23.1444
8.52159  21.1685  23.4004
8.52159  20.9866  23.7397
8.52159  20.5492  24.2503
15.2132  10.7202  19.125
15.2132  13.0048  19.1988
15.2132  14.4811  19.3197
15.2132  15.4549  19.438
15.2132  16.7877  19.6625
15.2132  17.8525  19.9108
15.2132  18.8209  20.2148
15.2132  19.5059  20.5001
15.2132  20.0896  20.8222
15.2132  20.4726  21.1069
15.2132  20.7704  21.4151
15.2132  20.9424  21.6812
15.2132  21.0724  22.1066
15.2132  21.0697  22.3837
15.2132  21.0147  22.6257
20.0511  11.065  18.4217
15.2132  20.8694  22.9463
8.52159  16.9133  27.794
15.2132  20.5005  23.4287
20.0511  13.2091  18.4925
20.0511  14.5983  18.6083
8.52159  15.4193  29.0731
20.0511  15.5165  18.7216
20.0511  16.7763  18.9367
8.52159  14.0295  30.0716
8.52159  13.5562  30.3806
20.0511  17.786  19.1745
8.52159  12.0259  31.2908
20.0511  18.7082  19.4657
8.52159  11.3042  31.6784
20.0511  19.364  19.7389
20.0511  19.9265  20.0475
8.52159  9.62287  32.4895
20.0511  20.2992  20.3201
8.52159  8.35981  33.0199
20.0511  20.5933  20.6154
8.52159  7.34283  33.3994
20.0511  20.7674  20.8703
20.0511  20.91  21.2777
8.52159  5.49769  33.9785
20.0511  20.9209  21.5432
20.0511  20.8811  21.7749
20.0511  20.7607  22.082
8.52159  3.65366  34.406
8.52159  3.01608  34.5143
20.0511  20.4385  22.5441
8.52159  2.13637  34.6257
25.6604  11.4302  17.2506
8.52159  0.811416  34.6948
15.2132  16.5242  27.6939
25.6604  13.4168  17.3177
15.2132  15.2376  28.8857
25.6604  14.708  17.4276
25.6604  15.5633  17.5351
15.2132  14.0091  29.8162
15.2132  13.5855  30.1041
25.6604  16.7404  17.7392
25.6604  17.6876  17.9649
15.2132  12.2016  30.9523
15.2132  11.5421  31.3134
25.6604  18.5569  18.2412
25.6604  19.1787  18.5006
15.2132  9.99032  32.0693
25.6604  19.7164  18.7933
15.2132  8.81157  32.5635
25.6604  20.0765  19.0521
15.2132  7.85462  32.9171
25.6604  20.3652  19.3323
25.6604  20.5407  19.5742
15.2132  6.10031  33.4567
25.6604  20.6956  19.9609
25.6604  20.7207  20.2127
15.2132  4.32208  33.8551
25.6604  20.6971  20.4327
15.2132  3.70073  33.956
25.6604  20.6031  20.7241
20.0511  16.2932  27.3309
15.2132  2.83712  34.0598
25.6604  20.3315  21.1626
15.2132  1.52012  34.1242
20.0511  15.1481  28.4597
20.0511  14.0309  29.3409
20.0511  13.6419  29.6136
20.0511  12.3604  30.4169
20.0511  11.7448  30.7589
33.9359  11.8211  15.1896
20.0511  10.2855  31.4748
33.9359  13.5754  15.2511
20.0511  9.16788  31.9429
20.0511  8.25508  32.2778
33.9359  14.7209  15.3518
33.9359  15.4826  15.4504
20.0511  6.56924  32.7888
33.9359  16.5354  15.6374
20.0511  4.8434  33.1661
33.9359  17.3875  15.8442
20.0511  4.23597  33.2617
33.9359  18.1753  16.0974
20.0511  3.3875  33.36
33.9359  18.7437  16.3351
33.9359  19.2408  16.6034
20.0511  2.08287  33.421
33.9359  19.5789  16.8405
25.6604  16.0913  26.5541
33.9359  19.8558  17.0972
33.9359  20.03  17.3189
25.6604  15.0991  27.6098
38.8887  11.8167  13.8979
33.9359  20.1978  17.6733
33.9359  20.2405  17.9041
33.9359  20.2376  18.1056
25.6604  14.104  28.434
38.8887  13.4131  13.9553
25.6604  13.7533  28.689
33.9359  20.1785  18.3726
38.8887  14.4586  14.0494
25.6604  12.5862  29.4403
33.9359  19.9751  18.7745
38.8887  15.1554  14.1415
25.6604  12.0201  29.7602
38.8887  16.121  14.3162
25.6604  10.6665  30.4297
38.8887  16.9055  14.5094
25.6604  9.61985  30.8674
38.8887  17.6338  14.7459
25.6604  8.75921  31.1807
38.8887  18.1621  14.9679
25.6604  7.15644  31.6586
38.8887  18.6273  15.2185
38.8887  18.9464  15.44
38.8887  19.211  15.6799
25.6604  5.49761  32.0115
38.8887  19.3804  15.8869
25.6604  4.90918  32.1009
25.6604  4.08289  32.1928
43.8445  11.4325  12.5893
38.8887  19.5509  16.218
38.8887  19.6013  16.4336
38.8887  19.609  16.6219
25.6604  2.80123  32.2499
43.8445  12.8397  12.6417
38.8887  19.569  16.8713
43.8445  13.764  12.7274
38.8887  19.4046  17.2467
43.8445  14.3816  12.8113
43.8445  15.2397  12.9705
43.8445  15.9393  13.1465
33.9359  15.8171  25.0216
43.8445  16.5917  13.362
43.8445  17.0675  13.5643
33.9359  15.033  25.9652
43.8445  17.4891  13.7926
43.8445  17.7807  13.9944
33.9359  14.2088  26.7018
43.8445  18.0253  14.213
33.9359  13.9127  26.9297
43.8445  18.1846  14.4016
43.8445  18.3509  14.7032
33.9359  12.9114  27.6012
43.8445  18.4059  14.8997
33.9359  12.4185  27.8871
43.8445  18.4219  15.0712
43.8445  18.399  15.2985
33.9359  11.2247  28.4854
33.9359  10.2887  28.8767
43.8445  18.273  15.6405
33.9359  9.51156  29.1567
33.9359  8.04725  29.5838
38.8887  15.4574  23.9095
33.9359  6.50887  29.8992
33.9359  5.95741  29.9791
38.8887  14.7957  24.7758
33.9359  5.17761  30.0613
38.8887  14.077  25.4522
33.9359  3.95429  30.1123
38.8887  13.8154  25.6614
38.8887  12.922  26.2779
38.8887  12.4782  26.5404
38.8887  11.3946  27.0898
38.8887  10.538  27.449
38.8887  9.8227  27.706
38.8887  8.46579  28.0982
43.8445  14.7044  22.5378
38.8887  7.02816  28.3878
38.8887  6.5098  28.4612
43.8445  14.1673  23.312
38.8887  5.77402  28.5366
43.8445  13.5622  23.9164
38.8887  4.61266  28.5834
43.8445  13.3389  24.1034
43.8445  12.5682  24.6544
43.8445  12.1817  24.8889
43.8445  11.2307  25.3799
43.8445  10.4727  25.7009
43.8445  9.83621  25.9306
43.8445  8.62096  26.2811
43.8445  7.32304  26.5399
43.8445  6.85251  26.6055
43.8445  6.18225  26.6729
43.8445  5.11839  26.7147
4.52859  4.79112  19.8816
12.0571  5.1715  19.4417
17.7197  5.39353  18.796
4.52859  18.1847  26.7625
12.0571  18.0567  26.3843
4.52859  0.331195  34.8816
17.7197  17.9676  25.7851
4.52859  0.120826  34.8816
29.6652  12.595  16.2959
29.6652  16.1371  16.6421
22.7978  17.8939  24.9198
12.0571  0.588208  34.4417
17.7197  0.903117  33.796
29.6652  17.7911  23.359
41.3666  12.4346  13.2606
41.3666  15.3023  13.5561
41.3666  16.1325  13.7339
41.3666  16.8538  13.9398
22.7978  1.2122  32.8891
36.4123  17.4799  21.6092
29.6652  6.78612  30.8922
41.3666  16.8589  20.1653
29.6652  1.67749  31.2668
56.7713  4.57298  9.15625
52.4623  11.7428  10.4188
52.4623  11.983  10.4525
56.7713  5.08799  9.15625
52.4623  12.2409  10.4944
56.7713  5.42877  9.15625
56.7713  5.66246  9.15625
52.4623  12.6066  10.5647
56.7713  6.00275  9.15625
56.7713  6.30265  9.15625
56.7713  6.61335  9.15625
56.7713  6.87148  9.15625
56.7713  7.13851  9.15625
56.7713  7.3601  9.15625
56.7713  7.58982  9.15625
56.7713  7.78242  9.15625
56.7713  8.08398  9.15625
56.7713  8.27866  9.15625
56.7713  8.44888  9.15625
56.7713  8.67636  9.15625
56.7713  9.02702  9.15625
36.4123  2.14726  29.3808
51.4786  11.4315  21.5766
46.5924  4.63133  25.5206
46.5924  4.38908  25.5206
46.5924  4.28128  25.5206
46.5924  4.03942  25.5206
46.5924  3.86192  25.5206
46.5924  3.71902  25.5206
46.5924  3.4538  25.5206
46.5924  3.17068  25.5206
46.5924  3.06568  25.5206
60.0964  11.8018  12.5228
46.5924  2.91203  25.5206
51.4786  8.21121  22.9488
51.4786  7.49108  23.0957
51.4786  7.0865  23.1583
55.2956  9.62324  20.6405
55.2956  5.59638  21.4894
55.2956  5.24023  21.4894
53.3105  3.23764  22.4141
55.2956  4.96865  21.4894
55.2956  4.88408  21.4894
68.2223  9.04511  10.7289
75.6975  7.03922  4.79553
70.9914  8.2328  9.75179
72.8979  7.71759  9.10966
69.5765  7.75006  14.0076
72.6936  7.0836  12.7473
78.6972  6.58507  7.46563
84.7397  6.07296  2.77367
80.2878  6.41573  7.12238
81.8032  6.31216  6.84451
83.2067  6.2665  6.6324
78.8911  6.14267  10.8462
91.1176  6.45638  1.94431
80.9618  5.99279  10.464
86.4612  6.34092  6.31644
88.1052  6.45688  6.24523
82.9078  5.93205  10.2323
90.0364  6.63762  6.22829
96.487  6.97646  1.71695
87.1091  6.06244  10.1653
92.7736  6.93705  6.31199
89.4926  6.25564  10.3527
95.358  7.22779  6.48771
98.0906  7.53519  6.75405
103.806  7.68195  1.91868
94.3278  6.74193  11.057
101.501  7.91892  7.1693
100.146  7.32155  12.2258
106.337  8.46291  7.85162
111.801  9.07511  8.68954
118.916  8.94707  3.02686
113.687  9.27498  8.9702
109.287  8.20111  14.3263
114.187  8.64236  15.4184
124.165  9.92125  9.88832
126.13  9.95786  9.94052
128.527  9.98422  9.97805
123.74  9.07457  16.4118
142.585  0.816341  4.56981e-05
126.652  9.0897  16.4038
142.585  0.920244  4.56981e-05
142.585  0.98188  4.56981e-05
142.585  1.02415  4.56981e-05
142.585  1.08356  4.56981e-05
142.585  1.1165  4.56981e-05
142.585  1.17406  4.56981e-05
142.585  1.20625  4.56981e-05
142.585  1.26298  4.56981e-05
142.585  1.30483  4.56981e-05
142.585  1.36167  4.56981e-05
142.585  1.40402  4.56981e-05
142.585  1.46212  4.56981e-05
142.585  1.50583  4.56981e-05
142.585  1.56639  4.56981e-05
142.585  1.56926  4.56981e-05
142.585  1.63268  4.56981e-05
142.585  2.05386  0.0106528
135.979  10  10.0002
133.408  9.04098  16.1643
147.364  1.01955  1.99754e-05
147.364  1.06422  1.99754e-05
147.364  1.108  1.99754e-05
147.364  1.15141  1.99754e-05
147.364  1.28776  0.000623031
147.364  1.79729  0.0213337
147.364  2.31656  0.0729918
147.364  2.84512  0.157816
147.364  3.38415  0.278825
147.364  3.93099  0.438733
147.364  4.48769  0.642223
147.364  4.8229  0.785828
147.364  5.16925  0.951948
142.343  10  9.52607
149.616  6.9729  17.7178
149.616  0.973535  20
149.616  0.91158  20
149.616  0.860728  20
149.616  0.849625  20
152.723  4.67095  19.1031
149.616  0.805183  20
149.616  0.794556  20
152.723  3.60955  19.5282
149.616  0.751439  20
149.616  0.741038  20
152.723  3.01973  19.702
152.723  2.49123  19.8227
149.616  0.692603  20
149.616  0.68226  20
152.723  1.97042  19.9105
149.616  0.633605  20
149.616  0.623112  20
152.723  1.46758  19.9668
152.723  0.974343  19.9954
149.616  0.573261  20
149.616  0.562404  20
152.723  0.669746  20
152.723  0.642287  20
149.616  0.486768  20
152.723  0.614725  20
152.723  0.587093  20
152.723  0.558902  20
6.58716  7.38252  19.7966
2.33613  19.2125  25.9339
2.33613  17.5965  27.3723
6.58716  19.1903  25.7101
6.58716  17.4316  27.3777
10.3416  17.2963  27.2971
13.6777  19.1403  25.0859
2.33613  0.783905  34.9349
2.33613  0.212486  34.9495
2.33613  0.207527  34.9495
2.33613  0.202036  34.9495
4.52859  2.2334  34.7519
6.58716  1.1976  34.7824
6.58716  0.614026  34.7966
6.58716  0.601767  34.7966
6.58716  0.583829  34.7966
18.9031  19.0901  24.3222
16.4919  17.101  26.9155
26.9484  18.5203  17.924
26.9484  18.9185  18.0828
27.612  17.7888  17.5255
26.9484  19.2527  18.2381
27.612  18.1612  17.6399
26.9484  19.5347  18.3903
27.612  18.4532  17.7404
27.612  18.7388  17.8498
26.9484  19.8258  18.5759
27.612  18.9642  17.9454
26.9484  20.0749  18.7695
27.612  19.2903  18.1017
26.9484  20.2301  18.9156
27.612  19.4829  18.2065
27.612  19.6395  18.3005
21.4247  16.9714  26.2999
28.2868  20.5752  19.812
31.785  17.2807  16.3526
31.785  17.6416  16.4514
31.785  17.996  16.5609
31.785  18.2744  16.6572
24.1999  16.9118  25.8209
31.785  18.5471  16.762
31.785  18.7627  16.8535
31.785  19.0755  17.0031
29.6652  20.5003  19.4705
31.785  19.2608  17.1035
27.612  18.973  22.3454
32.5002  18.2755  16.4829
31.785  19.4117  17.1935
32.5002  18.6504  16.6327
32.5002  18.9662  16.7793
32.5002  19.2338  16.9229
32.5002  19.5118  17.0981
32.5002  19.7515  17.2807
31.0732  20.4342  19.0244
32.5002  19.9024  17.4186
27.612  16.8505  25.1461
27.612  16.6278  25.4409
31.785  19.1635  20.7785
32.5002  19.5665  19.9412
28.2868  15.1023  27.1188
26.9484  12.3485  29.35
26.9484  11.754  29.6719
26.9484  11.1634  29.9656
47.4555  2.72263  11.6315
26.9484  10.501  30.2669
26.9484  9.82235  30.5472
27.612  11.3722  29.7416
29.6652  15.101  26.8471
27.612  10.6522  30.0755
39.7147  18.4767  14.9811
27.612  10.4232  30.1746
40.1277  18.0149  14.6535
39.7147  18.6844  15.1187
40.1277  18.2161  14.758
27.612  9.72065  30.4586
40.1277  18.3728  14.8483
39.7147  18.8962  15.2849
27.612  9.40399  30.5771
40.1277  18.5958  14.9942
39.7147  19.0745  15.4567
40.1277  18.725  15.091
27.612  8.6881  30.824
27.612  8.16077  30.9879
31.0732  15.0867  26.5672
41.3666  18.7764  15.0364
42.6056  17.4659  13.95
42.6056  17.6574  14.0497
42.6056  17.8068  14.136
42.6056  18.0198  14.2752
42.6056  18.1435  14.3677
43.0186  17.7195  14.0305
43.0186  17.915  14.1598
43.0186  18.1152  14.3161
31.785  11.6279  28.779
43.0186  18.2847  14.4775
32.5002  12.6011  28.1068
31.785  10.9497  29.0948
31.785  10.7334  29.1885
32.5002  12.0573  28.4056
31.785  10.068  29.457
32.5002  11.5141  28.6781
31.785  9.7673  29.569
32.5002  10.9018  28.9577
31.785  9.08571  29.8025
32.5002  10.2713  29.2178
50.3079  7.78794  10.8741
48.1534  11.8142  11.482
48.1534  12.425  11.5305
48.1534  13.6017  11.6922
46.7171  16.062  12.6844
46.7171  16.3004  12.7998
31.785  5.25657  30.622
46.7171  16.5045  12.9128
46.7171  16.7188  13.0505
46.7171  16.9069  13.194
48.1534  15.105  12.0806
46.7171  17.0275  13.3022
48.1534  15.3003  12.1537
46.7171  17.1416  13.4224
48.1534  15.4927  12.233
48.1534  15.6456  12.3022
46.7171  17.2756  13.6003
48.1534  15.869  12.4153
48.1534  16.0025  12.491
48.1534  16.1121  12.5589
48.1534  16.2481  12.6517
48.1534  16.4335  12.7993
49.2618  15.7097  15.446
46.3892  14.7906  20.356
47.6615  14.7875  19.1947
63.2346  1.95555  7.43828
63.2346  2.17578  7.43828
63.2346  2.32151  7.43828
63.2346  2.42144  7.43828
63.2346  2.56696  7.43828
63.2346  2.69521  7.43828
63.2346  2.82807  7.43828
63.2346  2.93846  7.43828
63.2346  3.05264  7.43828
63.2346  3.1474  7.43828
63.2346  3.24564  7.43828
63.2346  3.328  7.43828
63.2346  3.45696  7.43828
63.2346  3.54021  7.43828
63.2346  3.613  7.43828
63.2346  3.71028  7.43828
56.4433  12.9236  10.0015
63.2346  3.86023  7.43828
46.3892  13.5375  22.5941
51.9705  14.4792  15.2783
56.2794  13.8098  10.8909
47.6615  13.2005  22.2057
47.6615  12.8396  22.5609
44.7605  7.91557  26.0562
58.4338  12.689  9.75559
44.7605  7.31025  26.1613
47.6615  11.5138  23.4952
54.6791  13.5798  14.3589
47.6615  11.211  23.6588
45.2185  6.99735  26.0106
45.2185  6.69176  26.0471
45.2185  6.13746  26.0963
45.2185  5.56783  26.1237
45.2185  5.36312  26.1276
47.6615  9.30394  24.4319
45.2185  5.14227  26.1284
48.9339  10.1954  23.5163
47.3052  7.48651  25.0203
64.8972  8.25405  7.04695
62.4968  11.4193  8.76564
55.7875  12.0994  17.3704
51.4786  9.96347  22.3789
49.0355  6.20241  24.3787
61.6966  11.8612  9.53784
49.0355  5.84251  24.3965
49.0355  5.64303  24.4018
49.0355  5.43248  24.4038
49.0355  5.37591  24.4038
49.0355  5.25219  24.4038
49.0355  5.1614  24.4038
49.0355  5.0883  24.4038
55.6235  11.7045  18.7005
52.7509  9.86115  21.7985
57.696  11.4279  17.1996
53.3871  8.6891  21.9191
68.9602  7.58085  6.02233
72.6977  4.7536  4.93953
54.0232  7.58643  21.8888
53.3871  6.01465  22.3688
52.3945  4.86561  22.8407
75.564  2.87719  4.20016
55.2956  7.60953  21.2859
71.2059  7.4997  5.56681
61.6562  10.2103  16.4283
64.8364  9.65779  14.0273
60.0559  8.20396  18.8453
78.4971  3.96829  3.46322
62.436  8.93658  17.2863
71.9599  8.23556  6.95606
62.436  7.55444  17.8809
73.3445  7.83436  6.54224
69.5968  8.40973  11.895
73.1956  7.79714  7.40093
68.8994  8.48208  12.9773
74.2977  7.57958  6.26631
80.578  4.8655  2.97777
84.614  2.39135  2.06547
83.0182  3.64291  2.40513
70.284  8.12096  12.4478
72.1943  7.73077  10.9474
63.8729  4.86054  17.4942
71.8425  7.73107  11.8674
77.1974  6.9397  5.48239
71.0872  7.83641  12.747
80.2186  6.29555  3.68636
77.9926  6.8032  5.28423
72.7957  7.50558  11.5254
86.2727  3.55841  1.73635
75.7976  7.05377  8.21716
90.7344  2.38257  0.995438
74.8275  7.01754  11.4153
75.8945  6.87329  10.5168
89.4616  3.56122  1.18315
68.1616  4.34006  15.4998
87.8876  4.62118  1.46397
82.5137  6.34477  4.32478
71.5183  5.34797  13.9679
83.2715  6.32017  4.19538
79.292  6.44745  8.8861
75.7923  6.52662  11.6653
83.9732  6.31059  4.08448
78.7942  6.46514  9.76694
83.2499  6.30233  5.00977
92.1988  3.58987  0.805443
70.9307  4.14251  14.2433
69.536  2.83047  14.8678
79.5895  6.38648  9.59811
87.9287  6.19494  2.28612
81.0176  6.30718  8.5541
85.6005  6.33568  3.8617
84.8026  6.30133  4.7935
72.4892  4.02335  13.5788
80.6248  6.30573  9.40312
80.0469  6.31958  10.078
96.1707  2.40899  0.433053
86.4225  6.37077  3.76745
81.3825  6.26223  9.27863
94.8835  3.60972  0.532636
82.6392  6.23916  8.3107
87.9875  6.47054  2.96219
93.6282  4.76298  0.677566
75.8942  4.88964  12.3019
82.3555  6.22578  9.1419
74.3957  3.88022  12.8347
81.8909  6.21772  9.78436
83.0572  6.2131  9.05977
73.6921  2.62141  13.099
89.6114  6.61309  3.51653
97.6161  3.61343  0.341433
84.6845  6.22779  8.92394
90.577  6.70975  3.47611
89.7531  6.6208  4.41586
77.4945  3.67859  11.8506
79.7106  4.61055  11.3312
87.2252  6.37107  7.99814
85.4927  6.24145  9.50406
91.9456  6.85642  3.44676
86.7851  6.33045  8.85753
91.3092  6.78261  4.38895
79.085  3.59733  11.4725
93.4594  7.01749  2.69601
87.6071  6.39148  8.86126
78.0893  2.43086  11.6988
101.276  3.59405  0.183117
99.6795  4.87443  0.280059
80.1203  3.5535  11.2748
82.0598  4.51279  10.9932
89.2114  6.54264  8.01654
103.656  2.37827  0.119048
88.7989  6.49616  8.89271
88.2356  6.43166  9.53629
94.6303  7.15366  3.48186
81.6358  3.50311  11.0566
89.7645  6.59213  8.93855
90.7675  6.70449  8.08233
94.8729  7.17814  4.4769
95.9225  7.29741  3.53855
82.6088  3.47985  10.962
80.8502  2.35142  11.1591
91.1331  6.74  9.03058
85.0445  4.47898  10.867
97.2888  7.44974  3.62295
84.0123  3.45953  10.8901
96.6452  7.37616  4.58844
106.111  3.5287  0.0752572
92.198  6.84934  9.8537
83.4448  2.31054  10.9099
94.1531  7.08664  8.34591
93.5507  7.01512  9.25495
98.9943  7.64032  3.75923
86.1129  3.45821  10.9245
98.693  7.60541  4.76267
100.598  7.8094  3.04059
88.3355  4.54522  11.101
94.8429  7.16241  9.40009
95.9255  7.28755  8.53447
87.7569  3.47569  11.0574
96.2092  7.31775  9.56917
86.8769  2.30983  10.9757
88.9487  3.49471  11.2035
102.654  8.05029  4.14291
92.0292  4.67576  11.7085
97.5216  7.45545  10.5686
110.379  4.89586  0.0934574
90.8799  3.53028  11.5146
99.9128  7.73825  9.04742
99.1185  7.64745  9.97067
103.882  8.18758  5.36076
105.072  8.32162  4.44918
90.0549  2.34323  11.3715
113.666  3.3366  0.0175987
100.824  7.84023  10.2241
93.2975  3.56984  12.0039
102.662  8.04828  9.44511
107.804  8.62852  4.83571
107.315  8.57336  5.84206
103.242  8.11315  10.595
97.3034  4.82204  12.9483
118.901  2.071  0.00624166
95.8819  3.59379  12.6155
94.677  2.39003  12.3204
111.508  9.02752  4.38644
105.257  8.32704  11.8518
98.7912  3.59882  13.3876
107.812  8.62822  11.3108
109.142  8.77811  10.4381
115.358  9.43752  6.02128
102.202  3.5789  14.371
114.801  9.38525  6.9987
100.613  2.39426  13.9049
110.544  8.93558  11.7338
104.564  4.90617  15.036
124.144  2.77486  0.00208899
116.301  9.52089  6.16395
113.225  9.22721  11.0477
111.758  9.05417  12.9422
112.994  9.20295  12.0889
113.937  9.30011  12.2124
118.923  9.71191  7.55052
106.772  3.51389  15.7675
124.806  7.04495  1.16914
121.541  9.84093  6.84834
118.926  9.71209  9.59031
117.346  9.60466  11.5184
127.75  5.57756  0.489457
122.523  9.87598  6.95665
128.942  5.51292  0.497677
123.07  9.8928  7.95909
112.886  4.86631  17.6208
119.176  9.72683  12.6592
109.577  2.30246  16.6519
136.326  0.554864  0.00014786
128.009  9.08717  3.56915
136.326  0.625486  0.00014786
112.236  3.38201  17.4882
136.326  0.66738  0.00014786
136.326  0.696109  0.00014786
136.326  0.736488  0.00014786
136.326  0.758881  0.00014786
136.326  0.798002  0.00014786
136.326  0.819886  0.00014786
136.326  0.85844  0.00014786
136.326  0.886887  0.00014786
136.326  0.92552  0.00014786
136.326  0.954309  0.00014786
136.326  0.993796  0.00014786
136.326  1.02351  0.00014786
136.326  1.06467  0.00014786
136.326  1.06662  0.00014786
136.326  1.10973  0.00014786
120.697  9.78555  13.7804
118.963  8.94895  16.1567
132.816  5.29111  0.523492
114.686  3.29928  18.2062
131.423  9.06277  3.74015
124.678  9.93243  11.7224
123.953  9.9162  12.657
116.573  3.22177  18.691
124.935  9.93756  12.6212
118.962  4.6902  19.103
136.211  4.26278  0.270713
116.11  2.16134  18.5792
127.105  9.97061  11.6626
126.391  9.96156  12.5532
125.507  9.92653  13.6663
127.591  9.97589  12.4866
121.349  2.96182  19.5221
129.587  9.96833  13.4033
124.426  4.37426  19.7049
131.022  9.99678  12.2582
123.314  2.83234  19.7127
121.862  1.95269  19.579
132.757  9.99961  11.4185
124.77  2.73053  19.8121
139.242  9.51435  5.29958
134.723  10  11.975
127.173  2.55513  19.9185
150.079  0.232515  1.16936e-05
125.745  1.77351  19.8626
129.312  4.02112  19.8773
140.253  9.98924  7.73008
144.879  3.23296  0.194214
144.879  3.3987  0.231803
144.879  3.57209  0.27485
142.464  9.11876  4.62098
137.294  10  10.9796
145.684  3.7571  0.343649
145.684  3.98512  0.413297
144.01  8.13411  3.18664
137.94  10  11.4274
130.618  2.29395  19.9877
153.065  0.279788  5.89081e-06
144.748  9.73698  6.46327
139.228  7.01374  18.2066
134.667  1.3194  20.0002
153.065  6.41997  1.9926
146.283  10  9.74241
153.065  6.72639  2.24357
153.065  7.12569  2.60542
153.065  7.40951  2.88989
153.065  7.77811  3.29906
153.065  8.03876  3.62024
153.065  8.37467  4.08186
153.065  8.38985  4.10418
137.716  1.74094  20.0001
153.065  8.70746  4.60646
153.065  8.96564  5.0752
155.224  6.54861  2.20208
155.224  7.02442  2.62455
155.224  7.47193  3.07872
148.468  10  9.82994
155.224  7.88963  3.56359
155.224  8.27722  4.08005
145.757  10  11.1912
155.224  8.63154  4.62567
155.224  8.95251  5.20315
155.224  9.12652  5.56169
142.104  5.60847  19.0133
155.224  9.29105  5.94093
151.871  10  9.70188
144.404  6.06728  18.6516
154.401  10  10.318
145.489  0.996339  20
146.801  1.01665  20
149.616  4.06057  19.4557
145.489  0.68021  20
151.13  5.3915  18.7856
154.401  9.23334  14.2586
145.489  0.636922  20
150.617  3.91431  19.4803
145.489  0.601391  20
145.489  0.593634  20
145.489  0.562582  20
151.652  5.15615  18.8963
145.489  0.555157  20
153.832  8.11036  16.2383
145.489  0.525031  20
145.489  0.517764  20
145.489  0.483923  20
145.489  0.476696  20
145.489  0.442701  20
145.489  0.435369  20
145.489  0.400538  20
145.489  0.392952  20
151.13  2.25282  19.8892
145.489  0.340105  20
156.169  8.6005  15.3617
156.169  8.03377  16.194
157.401  9.14045  14.2478
156.169  7.50197  16.8342
156.169  7.37839  16.9679
157.401  8.57136  15.3265
156.169  6.85902  17.4794
156.169  6.72928  17.5957
157.401  8.1979  15.8931
157.401  7.82814  16.3806
156.169  6.18307  18.0421
156.169  6.0469  18.1434
157.401  7.43075  16.8415
157.401  7.01536  17.2672
157.401  6.57696  17.6649
157.401  6.06952  18.0696
154.401  0.131225  20
156.169  0.147108  20
3.44971  8.86153  19.9177
3.44971  9.19926  19.9177
7.56928  9.26893  19.7478
7.56928  9.64042  19.7478
0.795274  20.8442  24.5651
1.18663  20.4091  24.9417
1.18663  20.3105  25.0276
1.18663  20.2008  25.1232
3.44971  20.4083  24.8019
3.08243  19.9769  25.2126
5.22918  20.8158  24.278
1.18663  17.897  27.1341
7.88997  20.6489  24.2146
7.56928  20.3004  24.5797
7.56928  20.1902  24.6848
1.18663  17.4602  27.5182
1.18663  17.4255  27.5493
10.3416  20.6317  23.9704
3.44971  17.2774  27.6364
11.2118  20.283  24.2181
8.52159  18.1156  26.6085
9.44531  18.5987  26.0673
12.6073  20.6818  23.6248
5.22918  16.5761  28.2099
1.57386  7.1313  33.4802
1.57386  6.09057  33.8425
7.56928  17.0485  27.7058
0.795274  3.56126  34.5425
1.57386  5.09344  34.1508
7.56928  16.9884  27.766
2.33613  6.31741  33.7754
14.7102  20.5885  23.415
14.4555  20.2585  23.8053
1.18663  2.99193  34.6635
2.33613  5.26044  34.1072
1.18663  2.59984  34.7366
2.33613  4.81159  34.2345
2.33613  3.83628  34.4812
4.52859  8.04697  33.1631
9.44531  16.9434  27.7116
2.33613  2.72909  34.7074
9.44531  16.8722  27.7844
3.44971  0.955728  34.8998
6.58716  6.63383  33.6704
7.24528  7.6366  33.3127
6.58716  5.78094  33.9377
6.58716  5.16869  34.1107
7.24528  6.63784  33.661
6.58716  4.68613  34.2356
11.4963  16.0499  28.4344
7.24528  5.88793  33.8956
18.1188  20.4771  22.92
6.58716  3.81897  34.433
12.8786  16.7636  27.6544
5.574  1.18217  34.8225
12.8786  16.6734  27.7502
7.56928  3.20504  34.5201
15.8593  16.6221  27.5169
26.2974  14.3801  17.2418
26.6212  14.8472  17.2124
26.6212  15.7712  17.3355
27.612  14.0889  16.8952
18.3166  16.5165  27.3289
28.6281  15.3237  16.7769
26.2974  20.5905  19.558
26.0835  20.6777  19.8485
26.2974  20.6334  19.6666
28.2868  18.2659  17.5111
28.6281  17.6697  17.2429
28.2868  18.4788  17.5867
28.6281  17.883  17.3049
28.2868  18.6296  17.6441
28.6281  18.0171  17.3461
28.6281  18.1321  17.3831
20.7398  16.4221  27.0686
26.9484  20.6596  19.7232
27.612  20.409  18.996
20.7398  16.2961  27.2171
30.719  15.0962  16.2203
27.612  20.59  19.3638
27.9481  20.4721  19.0354
28.9717  19.6388  17.9862
31.785  13.9922  15.8355
30.719  17.5996  16.7049
28.6281  20.4502  18.8749
30.719  17.8076  16.7655
29.6652  19.6331  17.8226
30.719  17.9385  16.806
28.5141  20.5654  19.1857
30.719  18.0506  16.8421
22.1095  16.243  27.0454
31.0732  18.153  16.7891
31.0732  18.3593  16.8626
32.8587  14.6377  15.6199
30.3662  19.5631  17.6154
31.0732  18.5055  16.9183
28.6281  19.8553  20.8662
30.719  20.3295  18.3019
23.2605  15.6632  27.485
30.8369  20.4343  18.5425
31.4286  20.2694  18.0826
31.785  20.164  17.8594
31.785  20.3498  18.2115
24.921  16.289  26.4516
24.921  16.1492  26.6282
30.719  19.95  20.0374
32.0231  20.3776  18.7288
33.2176  20.1746  17.6601
31.785  20.1407  19.3808
33.2176  20.2206  17.7611
32.5002  20.3458  18.5796
33.457  20.2405  17.8093
32.9783  20.3126  18.4221
33.2176  20.0777  18.9133
33.457  20.1224  18.7337
27.9481  16.1176  26.0458
28.6281  16.1003  25.9211
27.612  13.8888  28.2458
27.612  13.1213  28.7665
27.9481  13.4801  28.4699
28.5141  14.0908  27.9289
32.8587  17.3108  23.1128
28.6281  13.5039  28.3269
26.2974  4.90816  31.9626
39.3017  19.4524  16.0325
39.3017  19.4953  16.1574
26.6212  5.33238  31.832
28.9717  11.4663  29.4352
28.2868  9.60951  30.3673
39.99  19.2973  15.7793
41.3666  18.0237  14.4423
30.8369  14.1294  27.4429
28.6281  9.08414  30.4857
29.6652  11.513  29.2751
39.7147  19.4564  16.3785
30.719  13.5624  27.8779
40.1277  19.3422  15.9426
28.6281  8.70627  30.6105
28.6281  8.58842  30.6478
27.612  5.81416  31.5368
40.1277  19.3726  16.1329
30.3662  11.5524  29.1139
31.4286  13.5766  27.722
31.785  13.2619  27.8571
41.3666  19.0897  15.9884
30.719  9.27708  29.977
31.0732  9.84802  29.6966
30.719  8.90813  30.0984
45.2808  15.1402  12.6373
33.2176  13.9802  27.044
42.7432  18.6323  14.943
45.2808  15.4005  12.7045
42.6056  18.7447  15.1807
45.2808  15.7626  12.8107
42.6056  18.7782  15.3624
46.2384  14.2364  12.2351
52.1134  3.76769  10.3943
43.4315  18.4969  14.8903
43.0186  18.667  15.344
43.5692  18.4831  14.9514
31.785  7.12634  30.3248
47.4353  14.3626  12.003
44.8021  18.1164  14.838
45.2808  17.9583  14.609
30.719  2.84464  30.9927
49.5897  15.0661  11.8509
46.6078  17.4029  14.6564
49.5897  15.209  11.9186
58.5767  1.09807  8.67625
50.3079  14.515  11.5186
50.3079  14.655  11.5746
48.0441  16.969  13.7086
47.9895  16.9193  14.1633
45.753  16.4257  17.544
48.7076  16.7037  13.7467
50.8621  15.7603  12.3777
50.0619  16.1367  13.4989
49.7952  16.0112  14.1208
55.2256  11.4377  9.73941
54.4528  12.65  10.1814
54.4528  12.7534  10.2136
54.4528  12.8997  10.2624
52.2164  15.3356  12.1507
54.3709  13.7364  10.6507
60.0029  5.85012  8.29708
60.0029  5.94052  8.29708
60.0029  6.01957  8.29708
60.0029  6.12521  8.29708
56.6073  11.1472  9.38229
60.0029  6.28805  8.29708
55.0617  13.4638  10.4333
53.5707  14.8243  11.73
45.1169  13.1774  23.6207
45.1169  13.0272  23.7414
57.6025  11.2805  9.20237
57.2161  11.8638  9.44116
46.8133  13.9463  21.7581
47.6615  14.0614  20.7876
45.1169  12.6648  24.0084
56.3613  13.4961  10.4276
54.1249  14.418  12.7081
45.9651  12.1905  23.917