 VARIABLES = X Y
 ZONE N = 1252, E = 2218, DATAPACKING= POINT, ZONETYPE= FETRIANGLE
1  0
1  0.0140845
1  0.028169
1  0.0422535
1  0.056338
1  0.0704225
1  0.084507
1  0.0985915
1  0.112676
1  0.126761
1  0.140845
1  0.15493
1  0.169014
1  0.183099
1  0.197183
1  0.211268
1  0.225352
1  0.239437
1  0.253521
1  0.267605
1  0.28169
1  0.295774
1  0.309859
1  0.323943
1  0.338028
1  0.352112
1  0.366197
1  0.380281
1  0.394366
1  0.40845
1  0.422535
1  0.436619
1  0.450704
1  0.464788
1  0.478873
1  0.492957
1  0.507042
1  0.521126
1  0.535211
1  0.549295
1  0.56338
1  0.577464
1  0.591549
1  0.605633
1  0.619718
1  0.633802
1  0.647887
1  0.661971
1  0.676056
1  0.69014
1  0.704225
1  0.718309
1  0.732394
1  0.746478
1  0.760563
1  0.774647
1  0.788732
1  0.802816
1  0.8169
1  0.830985
1  0.845069
1  0.859154
1  0.873238
1  0.887323
1  0.901407
1  0.915492
1  0.929576
1  0.943661
1  0.957745
1  0.97183
1  0.985914
1  1
0.985915  1
0.971831  1
0.957746  1
0.943662  1
0.929577  1
0.915493  1
0.901408  1
0.887324  1
0.873239  1
0.859155  1
0.84507  1
0.830986  1
0.816901  1
0.802817  1
0.788732  1
0.774648  1
0.760563  1
0.746479  1
0.732395  1
0.71831  1
0.704226  1
0.690141  1
0.676057  1
0.661972  1
0.647888  1
0.633803  1
0.619719  1
0.605634  1
0.59155  1
0.577465  1
0.563381  1
0.549296  1
0.535212  1
0.521127  1
0.507043  1
0.492958  1
0.478874  1
0.464789  1
0.450705  1
0.43662  1
0.422536  1
0.408451  1
0.394367  1
0.380282  1
0.366198  1
0.352113  1
0.338029  1
0.323944  1
0.30986  1
0.295775  1
0.281691  1
0.267606  1
0.253522  1
0.239437  1
0.225353  1
0.211268  1
0.197184  1
0.1831  1
0.169015  1
0.154931  1
0.140846  1
0.126762  1
0.112677  1
0.0985926  1
0.0845081  1
0.0704236  1
0.0563391  1
0.0422547  1
0.0281702  1
0.0140857  1
0  1
0  0.985915
0  0.971831
0  0.957746
0  0.943662
0  0.929577
0  0.915493
0  0.901408
0  0.887324
0  0.873239
0  0.859155
0  0.84507
0  0.830986
0  0.816901
0  0.802817
0  0.788732
0  0.774648
0  0.760563
0  0.746479
0  0.732395
0  0.71831
0  0.704226
0  0.690141
0  0.676057
0  0.661972
0  0.647888
0  0.633803
0  0.619719
0  0.605634
0  0.59155
0  0.577465
0  0.563381
0  0.549296
0  0.535212
0  0.521127
0  0.507043
0  0.492958
0  0.478874
0  0.464789
0  0.450705
0  0.43662
0  0.422536
0  0.408451
0  0.394367
0  0.380282
0  0.366198
0  0.352113
0  0.338029
0  0.323944
0  0.30986
0  0.295775
0  0.281691
0  0.267606
0  0.253522
0  0.239437
0  0.225353
0  0.211268
0  0.197184
0  0.1831
0  0.169015
0  0.154931
0  0.140846
0  0.126762
0  0.112677
0  0.0985926
0  0.0845081
0  0.0704236
0  0.0563391
0  0.0422547
0  0.0281702
0  0.0140857
0  0
0.0140845  0
0.028169  0
0.0422535  0
0.056338  0
0.0704225  0
0.084507  0
0.0985915  0
0.112676  0
0.126761  0
0.140845  0
0.15493  0
0.169014  0
0.183099  0
0.197183  0
0.211268  0
0.225352  0
0.239437  0
0.253521  0
0.267605  0
0.28169  0
0.295774  0
0.309859  0
0.323943  0
0.338028  0
0.352112  0
0.366197  0
0.380281  0
0.394366  0
0.40845  0
0.422535  0
0.436619  0
0.450704  0
0.464788  0
0.478873  0
0.492957  0
0.507042  0
0.521126  0
0.535211  0
0.549295  0
0.56338  0
0.577464  0
0.591549  0
0.605633  0
0.619718  0
0.633802  0
0.647887  0
0.661971  0
0.676056  0
0.69014  0
0.704225  0
0.718309  0
0.732394  0
0.746478  0
0.760563  0
0.774647  0
0.788732  0
0.802816  0
0.8169  0
0.830985  0
0.845069  0
0.859154  0
0.873238  0
0.887323  0
0.901407  0
0.915492  0
0.929576  0
0.943661  0
0.957745  0
0.97183  0
0.985914  0
0.938457  0.264549
0.938457  0.292718
0.918548  0.0615427
0.904464  0.0615427
0.890379  0.0615427
0.876295  0.0615427
0.86221  0.0615427
0.848126  0.0615427
0.834041  0.0615427
0.819957  0.0615427
0.805872  0.0615427
0.791788  0.0615427
0.777703  0.0615427
0.938457  0.306803
0.749534  0.0615427
0.73545  0.0615427
0.721365  0.0615427
0.707281  0.0615427
0.693196  0.0615427
0.679112  0.0615427
0.665027  0.0615427
0.938457  0.503986
0.636858  0.0615427
0.622774  0.0615427
0.608689  0.0615427
0.594605  0.0615427
0.58052  0.0615427
0.938457  0.51807
0.26455  0.938457
0.524182  0.0615427
0.510098  0.0615427
0.496013  0.0615427
0.481929  0.0615427
0.467844  0.0615427
0.45376  0.0615427
0.439676  0.0615427
0.425591  0.0615427
0.411507  0.0615427
0.397422  0.0615427
0.383338  0.0615427
0.369253  0.0615427
0.355169  0.0615427
0.341084  0.0615427
0.327  0.0615427
0.538267  0.0615427
0.298831  0.0615427
0.284746  0.0615427
0.270662  0.0615427
0.256577  0.0615427
0.242493  0.0615427
0.228408  0.0615427
0.214324  0.0615427
0.552351  0.0615427
0.186155  0.0615427
0.17207  0.0615427
0.250466  0.938457
0.143901  0.0615427
0.566436  0.0615427
0.236381  0.938457
0.222297  0.938457
0.208212  0.938457
0.650943  0.0615427
0.194128  0.938457
0.180043  0.938457
0.165959  0.938457
0.938457  0.532155
0.151874  0.938457
0.763619  0.0615427
0.13779  0.938457
0.0615427  0.0593953
0.0615427  0.0734798
0.0615427  0.0875643
0.0615427  0.101649
0.0615427  0.115733
0.0615427  0.143902
0.0615427  0.157987
0.0615427  0.172071
0.123705  0.938457
0.0615427  0.20024
0.0615427  0.214325
0.0615427  0.228409
0.109621  0.938457
0.0615427  0.256578
0.0615427  0.270663
0.0615427  0.284747
0.0615427  0.298832
0.0615427  0.312916
0.0615427  0.327001
0.0615427  0.341085
0.0615427  0.35517
0.0615427  0.369254
0.0615427  0.383339
0.0615427  0.397423
0.0615427  0.411508
0.0615427  0.425592
0.0615427  0.439676
0.0615427  0.453761
0.938457  0.546239
0.0615427  0.48193
0.0615427  0.510099
0.0615427  0.524183
0.0615427  0.538268
0.0955364  0.938457
0.0814519  0.938457
0.938457  0.320887
0.0615427  0.594606
0.938457  0.560324
0.0615427  0.622775
0.938457  0.574408
0.0615427  0.650944
0.938457  0.588492
0.938457  0.602577
0.0615427  0.735451
0.0615427  0.707282
0.938457  0.334972
0.938457  0.349056
0.938457  0.616661
0.0615427  0.693197
0.0615427  0.679113
0.0615427  0.665028
0.938457  0.630746
0.0615427  0.636859
0.0615427  0.60869
0.938457  0.64483
0.0615427  0.580521
0.0615427  0.566437
0.0615427  0.552352
0.938457  0.658915
0.856099  0.938457
0.0615427  0.496014
0.938457  0.363141
0.938457  0.672999
0.82793  0.938457
0.0615427  0.467845
0.813845  0.938457
0.938457  0.687084
0.799761  0.938457
0.785676  0.938457
0.938457  0.377225
0.938457  0.701168
0.771592  0.938457
0.757507  0.938457
0.938457  0.715253
0.743423  0.938457
0.729338  0.938457
0.278635  0.938457
0.292719  0.938457
0.306804  0.938457
0.320888  0.938457
0.334973  0.938457
0.349057  0.938457
0.363142  0.938457
0.312915  0.0615427
0.391311  0.938457
0.405395  0.938457
0.41948  0.938457
0.200239  0.0615427
0.447649  0.938457
0.461733  0.938457
0.475818  0.938457
0.938457  0.39131
0.503987  0.938457
0.518071  0.938457
0.532156  0.938457
0.54624  0.938457
0.560324  0.938457
0.574409  0.938457
0.588493  0.938457
0.616662  0.938457
0.630747  0.938457
0.644831  0.938457
0.0615427  0.129818
0.673  0.938457
0.0615427  0.186156
0.701169  0.938457
0.938457  0.405394
0.938457  0.729337
0.938457  0.743422
0.715254  0.938457
0.0615427  0.242494
0.687085  0.938457
0.938457  0.757506
0.658916  0.938457
0.938457  0.771591
0.938457  0.419479
0.938457  0.785675
0.602578  0.938457
0.938457  0.79976
0.938457  0.433563
0.938457  0.813844
0.938457  0.827929
0.938457  0.447648
0.938457  0.461732
0.938457  0.842013
0.489902  0.938457
0.938457  0.856098
0.938457  0.870182
0.433564  0.938457
0.938457  0.884267
0.938457  0.475817
0.938457  0.898351
0.377226  0.938457
0.938457  0.912436
0.938457  0.489901
0.938457  0.92652
0.938457  0.940605
0.842014  0.938457
0.157986  0.0615427
0.938457  0.278634
0.0615427  0.721366
0.938457  0.165958
0.938457  0.123704
0.0615427  0.777704
0.0615427  0.749535
0.938457  0.222296
0.938457  0.0955353
0.938457  0.194127
0.0615427  0.904465
0.870183  0.938457
0.938457  0.250465
0.129817  0.0615427
0.0615427  0.834042
0.0615427  0.805873
0.0615427  0.876296
0.0615427  0.819958
0.938457  0.23638
0.938457  0.208211
0.938457  0.180042
0.0615427  0.848127
0.0615427  0.862211
0.938457  0.151873
0.0615427  0.791789
0.938457  0.137789
0.0615427  0.76362
0.938457  0.10962
0.0615427  0.89038
0.0615427  0.932634
0.0615427  0.918549
0.938457  0.0673663
0.938457  0.0814508
0.0673668  0.938457
0.932633  0.0615427
0.874308  0.125692
0.125692  0.874308
0.876915  0.346
0.123085  0.639915
0.123085  0.513155
0.330056  0.123085
0.123085  0.231465
0.876915  0.430507
0.876915  0.416422
0.123085  0.189212
0.876915  0.740366
0.881211  0.876915
0.123085  0.24555
0.768536  0.876915
0.203295  0.123085
0.876915  0.796704
0.867127  0.876915
0.123085  0.499071
0.315971  0.123085
0.123085  0.259634
0.876915  0.75445
0.853043  0.876915
0.123085  0.273719
0.754451  0.876915
0.176987  0.876915
0.541323  0.123085
0.838958  0.876915
0.876915  0.444591
0.189211  0.123085
0.876915  0.768535
0.698113  0.876915
0.876915  0.641774
0.123085  0.611747
0.876915  0.62769
0.653999  0.123085
0.259633  0.123085
0.123085  0.287803
0.148818  0.876915
0.303748  0.876915
0.876915  0.613605
0.876915  0.655859
0.876915  0.388253
0.876915  0.543183
0.876915  0.374169
0.876915  0.515014
0.876915  0.500929
0.876915  0.824873
0.876915  0.810788
0.876915  0.47276
0.162903  0.876915
0.740367  0.876915
0.810789  0.876915
0.876915  0.557267
0.684029  0.876915
0.669944  0.876915
0.613606  0.876915
0.599522  0.876915
0.571353  0.876915
0.876915  0.458676
0.515015  0.876915
0.50093  0.876915
0.486846  0.876915
0.876915  0.571352
0.458677  0.876915
0.444592  0.876915
0.430508  0.876915
0.416423  0.876915
0.402339  0.876915
0.472761  0.876915
0.388254  0.876915
0.37417  0.876915
0.360085  0.876915
0.529099  0.876915
0.346001  0.876915
0.527239  0.123085
0.557268  0.876915
0.331917  0.876915
0.78262  0.876915
0.585437  0.876915
0.796705  0.876915
0.876915  0.782619
0.123085  0.301888
0.191072  0.876915
0.641775  0.876915
0.175126  0.123085
0.627691  0.876915
0.123085  0.315972
0.442732  0.123085
0.400478  0.123085
0.123085  0.330057
0.75259  0.123085
0.301887  0.123085
0.161042  0.123085
0.123085  0.344141
0.123085  0.625831
0.428647  0.123085
0.123085  0.442733
0.146957  0.123085
0.123085  0.358226
0.49907  0.123085
0.712198  0.876915
0.205156  0.876915
0.123085  0.37231
0.876915  0.585436
0.876915  0.486845
0.123085  0.386395
0.823013  0.123085
0.808928  0.123085
0.876915  0.599521
0.219241  0.876915
0.876915  0.712197
0.233325  0.876915
0.261494  0.876915
0.876915  0.698112
0.24741  0.876915
0.876915  0.529098
0.876915  0.669943
0.275579  0.876915
0.543184  0.876915
0.876915  0.684028
0.876915  0.402338
0.386394  0.123085
0.289663  0.876915
0.876915  0.360085
0.317832  0.876915
0.682168  0.123085
0.456816  0.123085
0.851182  0.123085
0.123085  0.597662
0.470901  0.123085
0.123085  0.569493
0.794844  0.123085
0.123085  0.541324
0.513154  0.123085
0.123085  0.484986
0.123085  0.470902
0.123085  0.456817
0.726282  0.876915
0.696252  0.123085
0.123085  0.428648
0.287802  0.123085
0.132873  0.123085
0.123085  0.400479
0.118789  0.123085
0.123085  0.583578
0.710337  0.123085
0.738506  0.123085
0.123085  0.414564
0.273718  0.123085
0.65586  0.876915
0.837097  0.123085
0.123085  0.555409
0.766675  0.123085
0.583577  0.123085
0.484985  0.123085
0.372309  0.123085
0.780759  0.123085
0.639915  0.123085
0.21738  0.123085
0.555408  0.123085
0.724421  0.123085
0.123085  0.52724
0.123085  0.217381
0.123085  0.203296
0.231464  0.123085
0.569492  0.123085
0.245549  0.123085
0.62583  0.123085
0.876915  0.726281
0.414563  0.123085
0.358225  0.123085
0.34414  0.123085
0.597661  0.123085
0.668083  0.123085
0.611746  0.123085
0.123085  0.654
0.123085  0.668084
0.876915  0.331916
0.123085  0.682169
0.876915  0.317831
0.123085  0.837098
0.123085  0.738507
0.123085  0.794845
0.123085  0.752591
0.123085  0.696253
0.876915  0.176986
0.876915  0.275578
0.876915  0.303747
0.876915  0.247409
0.876915  0.21924
0.876915  0.233324
0.876915  0.289662
0.876915  0.261493
0.876915  0.191071
0.876915  0.162902
0.123085  0.808929
0.123085  0.710338
0.123085  0.766676
0.876915  0.205155
0.123085  0.823014
0.123085  0.78076
0.123085  0.724422
0.876915  0.148817
0.123085  0.851183
0.123085  0.865267
0.876915  0.134733
0.134733  0.876915
0.865267  0.123085
0.81413  0.191018
0.18587  0.808982
0.815372  0.413366
0.417619  0.184628
0.184628  0.347197
0.304943  0.184628
0.455621  0.815372
0.290859  0.184628
0.441536  0.815372
0.216184  0.815372
0.184628  0.530296
0.184628  0.220437
0.413367  0.815372
0.596466  0.815372
0.184628  0.262691
0.399283  0.815372
0.709141  0.815372
0.184628  0.516211
0.657055  0.184628
0.544379  0.184628
0.723226  0.815372
0.815372  0.666887
0.38945  0.184628
0.815372  0.723225
0.815372  0.70914
0.685224  0.184628
0.614802  0.184628
0.815372  0.821816
0.751395  0.815372
0.73731  0.815372
0.61055  0.815372
0.815372  0.497873
0.815372  0.540127
0.765479  0.815372
0.347196  0.184628
0.815372  0.554211
0.230269  0.815372
0.807733  0.815372
0.815372  0.652803
0.272522  0.815372
0.286607  0.815372
0.815372  0.568296
0.815372  0.441535
0.314776  0.815372
0.32886  0.815372
0.815372  0.58238
0.815372  0.779563
0.680972  0.815372
0.695057  0.815372
0.258438  0.815372
0.244353  0.815372
0.815372  0.793647
0.652804  0.815372
0.815372  0.596465
0.184628  0.558465
0.206352  0.184628
0.184628  0.361282
0.558464  0.184628
0.815372  0.610549
0.184628  0.192268
0.488041  0.184628
0.184628  0.276775
0.741562  0.184628
0.184628  0.459873
0.699309  0.184628
0.248605  0.184628
0.184628  0.29086
0.427452  0.815372
0.469705  0.815372
0.48379  0.815372
0.497874  0.815372
0.526043  0.815372
0.333112  0.184628
0.815372  0.624634
0.815372  0.638718
0.540128  0.815372
0.815372  0.680972
0.554212  0.815372
0.815372  0.483789
0.582381  0.815372
0.184628  0.488042
0.371114  0.815372
0.568297  0.815372
0.184628  0.248606
0.815372  0.427451
0.815372  0.511958
0.357029  0.815372
0.342945  0.815372
0.815372  0.526042
0.638719  0.815372
0.815372  0.45562
0.815372  0.469704
0.473957  0.184628
0.184628  0.572549
0.815372  0.751394
0.666888  0.815372
0.815372  0.695056
0.755647  0.184628
0.769731  0.184628
0.184628  0.333113
0.184628  0.178184
0.184628  0.319028
0.184628  0.304944
0.445788  0.184628
0.300691  0.815372
0.375365  0.184628
0.783816  0.184628
0.184628  0.389451
0.459872  0.184628
0.184628  0.502127
0.713393  0.184628
0.628886  0.184628
0.184628  0.431704
0.530295  0.184628
0.431703  0.184628
0.184628  0.445789
0.319028  0.184628
0.403534  0.184628
0.26269  0.184628
0.727478  0.184628
0.815372  0.737309
0.624635  0.815372
0.361281  0.184628
0.276774  0.184628
0.572548  0.184628
0.511959  0.815372
0.51621  0.184628
0.385198  0.815372
0.642971  0.184628
0.184628  0.473958
0.67114  0.184628
0.586633  0.184628
0.184628  0.41762
0.502126  0.184628
0.184628  0.403535
0.600717  0.184628
0.184628  0.54438
0.184628  0.234522
0.184628  0.375366
0.184628  0.586634
0.184628  0.600718
0.815372  0.399282
0.815372  0.385197
0.184628  0.614803
0.184628  0.628887
0.815372  0.371113
0.184628  0.685225
0.184628  0.755648
0.184628  0.657056
0.184628  0.713394
0.815372  0.342944
0.815372  0.314775
0.815372  0.286606
0.815372  0.244352
0.815372  0.258437
0.815372  0.30069
0.815372  0.230268
0.184628  0.741563
0.815372  0.272521
0.815372  0.328859
0.815372  0.357028
0.184628  0.727479
0.184628  0.69931
0.184628  0.642972
0.184628  0.769732
0.184628  0.671141
0.184628  0.783817
0.815372  0.216183
0.815372  0.202099
0.184628  0.797901
0.2021  0.815372
0.7979  0.184628
0.75322  0.257114
0.24678  0.742886
0.753829  0.480733
0.246171  0.533352
0.307999  0.246171
0.246171  0.364338
0.396227  0.753829
0.734254  0.753829
0.246171  0.336169
0.753829  0.522986
0.448844  0.246171
0.406591  0.246171
0.706085  0.753829
0.246171  0.448845
0.753829  0.762422
0.748339  0.753829
0.378422  0.246171
0.246171  0.350254
0.660111  0.246171
0.31172  0.753829
0.575604  0.246171
0.663832  0.753829
0.547435  0.246171
0.246171  0.378423
0.477013  0.246171
0.246171  0.392507
0.519267  0.246171
0.246171  0.46293
0.677916  0.753829
0.753829  0.565239
0.246171  0.237578
0.753829  0.677915
0.753829  0.551155
0.246171  0.491099
0.753829  0.663831
0.452565  0.753829
0.753829  0.607493
0.410311  0.753829
0.322084  0.246171
0.382142  0.753829
0.753829  0.494817
0.424396  0.753829
0.753829  0.508901
0.72017  0.753829
0.649747  0.753829
0.368058  0.753829
0.753829  0.649746
0.635663  0.753829
0.753829  0.53707
0.621578  0.753829
0.753829  0.635662
0.265746  0.246171
0.353973  0.753829
0.607494  0.753829
0.339889  0.753829
0.325804  0.753829
0.753829  0.692
0.462929  0.246171
0.593409  0.753829
0.246171  0.322085
0.551156  0.753829
0.297635  0.753829
0.692001  0.753829
0.603773  0.246171
0.537071  0.753829
0.753829  0.621577
0.480733  0.753829
0.494818  0.753829
0.43848  0.753829
0.522987  0.753829
0.466649  0.753829
0.579325  0.753829
0.753829  0.593408
0.491098  0.246171
0.56524  0.753829
0.27983  0.246171
0.350253  0.246171
0.68828  0.246171
0.336168  0.246171
0.246171  0.434761
0.364337  0.246171
0.246171  0.293916
0.246171  0.308
0.246171  0.406592
0.246171  0.477014
0.283551  0.753829
0.508902  0.753829
0.251661  0.246171
0.646027  0.246171
0.420675  0.246171
0.753829  0.579324
0.392506  0.246171
0.246171  0.505183
0.702365  0.246171
0.56152  0.246171
0.589689  0.246171
0.631942  0.246171
0.246171  0.420676
0.674196  0.246171
0.716449  0.246171
0.617858  0.246171
0.505182  0.246171
0.533351  0.246171
0.43476  0.246171
0.246171  0.519267
0.753829  0.466648
0.246171  0.547436
0.753829  0.452564
0.753829  0.438479
0.246171  0.561521
0.753829  0.424395
0.246171  0.575605
0.246171  0.646028
0.246171  0.58969
0.753829  0.368057
0.753829  0.396226
0.246171  0.688281
0.246171  0.674197
0.246171  0.631943
0.753829  0.297634
0.753829  0.339888
0.753829  0.325803
0.246171  0.617859
0.753829  0.311719
0.753829  0.353972
0.753829  0.41031
0.753829  0.382141
0.246171  0.702366
0.246171  0.603774
0.246171  0.660112
0.246171  0.71645
0.753829  0.28355
0.753829  0.269465
0.246171  0.730535
0.269466  0.753829
0.730534  0.246171
0.254898  0.750731
0.745102  0.249269
0.691985  0.323725
0.308015  0.676275
0.307713  0.451901
0.692287  0.548099
0.692287  0.534014
0.307713  0.465986
0.522323  0.307713
0.604438  0.692287
0.618522  0.692287
0.592745  0.307713
0.350917  0.692287
0.437816  0.307713
0.494154  0.307713
0.365001  0.692287
0.367393  0.307713
0.692287  0.604437
0.590353  0.692287
0.409647  0.307713
0.339224  0.307713
0.692287  0.688944
0.692287  0.674859
0.307713  0.325141
0.534015  0.692287
0.5481  0.692287
0.296971  0.307713
0.307713  0.409648
0.480069  0.307713
0.692287  0.590352
0.39317  0.692287
0.562184  0.692287
0.692287  0.703028
0.423731  0.307713
0.491762  0.692287
0.505846  0.692287
0.307713  0.367394
0.692287  0.562183
0.692287  0.576268
0.449508  0.692287
0.435424  0.692287
0.634999  0.307713
0.379086  0.692287
0.463593  0.692287
0.692287  0.64669
0.692287  0.660775
0.632607  0.692287
0.649083  0.307713
0.576269  0.692287
0.508238  0.307713
0.519931  0.692287
0.395562  0.307713
0.536407  0.307713
0.307713  0.395563
0.477677  0.692287
0.550492  0.307713
0.578661  0.307713
0.307713  0.381479
0.620914  0.307713
0.465985  0.307713
0.692287  0.618521
0.692287  0.632606
0.381478  0.307713
0.407255  0.692287
0.311055  0.307713
0.421339  0.692287
0.564576  0.307713
0.307713  0.437817
0.4519  0.307713
0.60683  0.307713
0.307713  0.35331
0.307713  0.423732
0.307713  0.48007
0.692287  0.51993
0.307713  0.494155
0.692287  0.505845
0.692287  0.491761
0.307713  0.508239
0.307713  0.522324
0.692287  0.477676
0.307713  0.578662
0.692287  0.449507
0.692287  0.421338
0.692287  0.379085
0.307713  0.620915
0.692287  0.435423
0.307713  0.550493
0.307713  0.564577
0.692287  0.407254
0.307713  0.635
0.307713  0.606831
0.307713  0.592746
0.692287  0.365
0.692287  0.393169
0.692287  0.463592
0.307713  0.536408
0.692287  0.350916
0.307713  0.649084
0.307713  0.663169
0.692287  0.336831
0.336832  0.692287
0.663168  0.307713
0.687934  0.314439
0.312066  0.685561
0.322894  0.690775
0.677106  0.309225
0.628529  0.380032
0.371471  0.619968
0.630594  0.390656
0.369406  0.609344
0.369256  0.384535
0.630744  0.615465
0.630744  0.601381
0.530959  0.630744
0.474621  0.630744
0.539463  0.369256
0.440872  0.369256
0.454956  0.369256
0.426787  0.369256
0.483125  0.369256
0.567632  0.369256
0.545044  0.630744
0.559128  0.630744
0.553548  0.369256
0.488706  0.630744
0.412703  0.369256
0.49721  0.369256
0.369256  0.370451
0.573213  0.630744
0.398619  0.369256
0.369256  0.356366
0.525379  0.369256
0.446452  0.630744
0.432368  0.630744
0.587297  0.630744
0.418283  0.630744
0.469041  0.369256
0.581717  0.369256
0.50279  0.630744
0.630744  0.629549
0.511294  0.369256
0.630744  0.643634
0.516875  0.630744
0.460537  0.630744
0.630744  0.559127
0.369256  0.440873
0.369256  0.454957
0.630744  0.545043
0.369256  0.469042
0.630744  0.530958
0.369256  0.511295
0.369256  0.567633
0.630744  0.516874
0.630744  0.446451
0.630744  0.502789
0.630744  0.47462
0.630744  0.488705
0.369256  0.539464
0.369256  0.52538
0.630744  0.432367
0.630744  0.460536
0.369256  0.483126
0.369256  0.497211
0.369256  0.553549
0.630744  0.418282
0.369256  0.581718
0.369256  0.595802
0.630744  0.404198
0.404199  0.630744
0.595801  0.369256
0.390412  0.63
0.609588  0.37
0.621535  0.373246
0.378465  0.626754
0.431949  0.55397
0.568051  0.44603
0.569126  0.457777
0.430874  0.542223
0.563804  0.437885
0.436196  0.562115
0.499734  0.569201
0.443928  0.430799
0.513818  0.569201
0.429844  0.430799
0.485649  0.569201
0.514351  0.430799
0.472097  0.430799
0.500266  0.430799
0.556072  0.569201
0.458013  0.430799
0.527903  0.569201
0.486182  0.430799
0.570156  0.569201
0.541987  0.569201
0.569201  0.499733
0.430799  0.500267
0.430799  0.514352
0.569201  0.485648
0.569201  0.471564
0.430799  0.528436
0.528435  0.430799
0.471565  0.569201
0.45775  0.568832
0.54225  0.431168
0.554774  0.43311
0.445226  0.56689
0.504528  0.502972
0.495472  0.497028
0.492946  0.487578
0.507054  0.512422
15  16  285
17  18  286
283  284  287
282  283  288
281  282  289
280  281  290
279  280  291
278  279  292
277  278  293
276  277  294
275  276  295
274  275  296
273  274  297
18  19  298
271  272  299
270  271  300
269  270  301
268  269  302
267  268  303
266  267  304
265  266  305
32  33  306
263  264  307
262  263  308
261  262  309
260  261  310
259  260  311
33  34  312
64  65  80
128  129  313
255  256  314
254  255  315
253  254  316
252  253  317
251  252  318
250  251  319
249  250  320
248  249  321
247  248  322
246  247  323
245  246  324
244  245  325
243  244  326
242  243  327
241  242  328
256  257  329
239  240  330
238  239  331
237  238  332
236  237  333
235  236  334
234  235  335
233  234  336
257  258  337
231  232  338
230  231  339
129  130  340
228  229  341
258  259  342
65  66  78
130  131  343
131  132  344
66  67  77
132  133  345
264  265  346
133  134  347
67  68  76
134  135  348
135  136  349
34  35  350
68  69  75
136  137  351
272  273  352
212  213  216
211  212  216
210  211  217
209  210  218
137  138  353
207  208  220
206  207  222
205  206  354
204  205  355
203  204  356
202  203  357
201  202  358
69  70  74
199  200  359
198  199  360
197  198  361
138  139  362
195  196  363
194  195  364
193  194  365
139  140  366
191  192  367
190  191  368
189  190  369
188  189  370
187  188  371
186  187  372
185  186  373
184  185  374
183  184  375
182  183  376
181  182  377
180  181  378
179  180  379
178  179  380
177  178  381
35  36  382
175  176  383
70  71  74
173  174  384
172  173  385
171  172  386
140  141  387
141  142  388
19  20  389
167  168  390
36  37  391
165  166  392
37  38  393
163  164  394
38  39  395
39  40  396
157  158  397
159  160  398
20  21  399
21  22  400
40  41  401
160  161  402
161  162  403
162  163  404
41  42  405
164  165  406
166  167  407
42  43  408
168  169  409
169  170  410
170  171  411
43  44  412
86  87  413
174  175  414
22  23  415
44  45  416
88  89  417
176  177  418
89  90  419
45  46  420
90  91  421
91  92  422
23  24  423
46  47  424
92  93  425
93  94  426
47  48  427
94  95  428
95  96  429
127  128  430
126  127  431
125  126  432
124  125  433
123  124  434
122  123  435
121  122  436
240  241  437
119  120  438
118  119  439
117  118  440
232  233  441
115  116  442
114  115  443
113  114  444
24  25  445
111  112  446
110  111  447
109  110  448
108  109  449
107  108  450
106  107  451
105  106  452
208  209  219
103  104  453
102  103  454
101  102  455
200  201  456
99  100  457
196  197  458
97  98  459
25  26  460
48  49  461
49  50  462
96  97  463
192  193  464
98  99  465
50  51  466
100  101  467
51  52  468
26  27  469
52  53  470
104  105  471
53  54  472
27  28  473
54  55  474
55  56  475
28  29  476
29  30  477
56  57  478
112  113  479
57  58  480
58  59  481
116  117  482
59  60  483
30  31  484
60  61  485
120  121  486
61  62  487
31  32  488
62  63  489
63  64  490
87  88  491
229  230  492
16  17  493
158  159  494
8  9  495
5  6  496
154  155  497
156  157  498
12  13  499
216  217  211
3  4  500
10  11  501
145  146  502
85  86  503
81  82  489
83  84  485
14  15  504
227  228  505
225  226  357
223  224  355
150  151  506
152  153  507
74  75  69
147  148  508
217  218  210
226  227  358
151  152  509
13  14  510
82  83  487
11  12  511
9  10  512
80  81  490
149  150  513
148  149  514
7  8  515
222  223  354
153  154  516
75  76  68
6  7  517
224  225  356
155  156  518
4  5  519
146  147  520
84  85  483
143  144  521
144  145  522
1  2  523
2  3  524
142  143  525
284  1  526
76  77  67
218  219  209
79  80  65
221  222  207
78  79  65
77  78  66
219  220  208
220  221  207
215  216  213
214  215  213
72  73  71
73  74  71
354  223  355
490  81  489
80  490  64
222  354  206
346  265  305
160  402  398
161  403  402
289  282  288
301  270  300
162  404  403
316  254  315
317  253  316
164  406  394
166  407  392
293  278  292
318  252  317
168  409  390
169  410  409
170  411  410
302  269  301
319  251  318
174  414  384
320  250  319
352  273  297
176  418  383
294  277  293
321  249  320
303  268  302
304  267  303
322  248  321
323  247  322
290  281  289
305  266  304
324  246  323
205  354  355
204  355  356
325  245  324
203  356  357
437  241  328
202  357  358
295  276  294
326  244  325
441  233  336
201  358  456
327  243  326
199  359  360
198  360  361
296  275  295
328  242  327
197  361  458
307  264  346
329  257  337
195  363  364
194  364  365
308  263  307
330  240  437
193  365  464
200  456  359
196  458  363
331  239  330
191  367  368
190  368  369
291  280  290
297  274  296
309  262  308
332  238  331
189  369  370
192  464  367
188  370  371
333  237  332
187  371  372
186  372  373
310  261  309
334  236  333
185  373  374
184  374  375
335  235  334
183  375  376
182  376  377
311  260  310
336  234  335
181  377  378
180  378  379
337  258  342
179  379  380
178  380  381
338  232  441
177  381  418
339  231  338
175  383  414
299  272  352
341  229  492
173  384  385
172  385  386
171  386  411
342  259  311
167  390  407
292  279  291
165  392  406
314  256  329
163  394  404
288  283  287
315  255  314
300  271  299
157  397  498
287  284  526
159  398  494
285  16  493
21  400  399
401  41  405
479  113  444
132  345  344
40  401  396
477  30  484
347  134  348
405  42  408
133  347  345
475  56  478
348  135  349
408  43  412
349  136  351
350  35  382
471  105  452
412  44  416
413  87  491
469  27  473
34  350  312
86  413  503
351  137  353
467  101  455
415  23  423
22  415  400
416  45  420
417  89  419
88  417  491
463  97  459
49  462  461
419  90  421
420  46  424
421  91  422
459  98  465
139  366  362
422  92  425
423  24  445
424  47  427
455  102  454
425  93  426
426  94  428
353  138  362
452  106  451
451  107  450
427  48  461
428  95  429
448  110  447
429  96  463
430  128  313
446  112  479
17  286  493
127  430  431
444  114  443
126  431  432
125  432  433
124  433  434
440  118  439
123  434  435
122  435  436
121  436  486
438  120  486
119  438  439
306  33  312
117  440  482
442  116  482
115  442  443
445  25  460
111  446  447
109  448  449
108  449  450
453  104  471
103  453  454
32  306  488
457  100  467
99  457  465
366  140  387
460  26  469
462  50  466
15  285  504
481  59  483
466  51  468
468  52  470
470  53  472
472  54  474
473  28  476
474  55  475
476  29  477
478  57  480
63  490  489
298  19  389
480  58  481
484  31  488
20  399  389
60  485  483
61  487  485
395  39  396
382  36  391
62  489  487
340  130  343
387  141  388
129  340  313
388  142  525
18  298  286
391  37  393
343  131  344
393  38  395
397  158  494
230  339  492
228  341  505
5  496  519
3  500  524
502  146  520
227  505  358
507  153  516
501  11  511
499  13  510
497  155  518
495  9  512
506  151  509
85  503  483
508  148  514
156  498  518
10  501  512
145  502  522
14  504  510
150  506  513
152  507  509
147  508  520
154  497  516
8  495  515
12  499  511
500  4  519
496  6  517
149  513  514
517  7  515
523  2  524
144  522  521
143  521  525
1  523  526
489  82  487
355  224  356
356  225  357
487  83  485
485  84  483
357  226  358
526  523  527
525  521  528
493  286  529
398  402  530
409  410  531
324  323  532
370  369  533
415  423  534
400  415  535
367  464  536
416  420  537
417  419  538
371  370  539
463  459  540
333  332  541
461  462  542
419  421  543
410  411  544
325  324  545
372  371  546
420  424  547
421  422  548
373  372  549
459  465  550
362  366  551
310  309  552
422  425  553
423  445  554
334  333  555
424  427  556
455  454  557
393  395  558
403  404  559
391  393  560
302  301  561
437  328  562
374  373  563
387  388  564
340  343  565
382  391  566
395  396  567
389  399  568
484  488  569
480  481  503
298  389  570
478  480  413
476  477  571
474  475  538
473  476  572
472  474  543
470  472  548
468  470  553
466  468  573
481  483  503
425  426  573
462  466  574
460  469  575
366  387  576
465  457  577
426  428  578
488  306  579
454  453  580
453  471  581
450  449  582
449  448  583
447  446  584
445  460  585
443  442  586
442  482  587
482  440  588
306  312  589