 VARIABLES = X Y Z
 ZONE N = 847, E = 1584, DATAPACKING= POINT, ZONETYPE= FETRIANGLE
0  1.05  1.8
0  -1.05  1.8
15  0  2
6.74582  -1.04999  1.88994
7.62739  -1.04938  1.9017
8.57571  -1.04636  1.91434
9.28954  -1.04122  1.92386
9.89362  -1.03349  1.93191
10.3772  -1.02387  1.93836
10.7794  -1.0125  1.94373
11.0608  -1.0016  1.94748
11.3108  -0.988595  1.95081
11.5278  -0.973897  1.9537
11.7261  -0.957103  1.95635
11.9128  -0.93794  1.95884
12.0925  -0.916164  1.96123
12.2681  -0.891534  1.96358
12.4421  -0.863796  1.9659
12.6379  -0.828732  1.96851
12.8433  -0.787927  1.97124
13.0559  -0.741665  1.97408
13.2726  -0.690479  1.97697
13.4896  -0.635184  1.97986
13.7025  -0.576864  1.9827
13.8868  -0.522892  1.98516
14.0608  -0.468604  1.98748
14.2218  -0.415054  1.98962
14.3674  -0.363218  1.99157
14.4965  -0.313929  1.99329
14.6082  -0.267831  1.99478
14.7028  -0.225361  1.99604
14.7811  -0.186758  1.99708
14.8442  -0.152087  1.99792
14.884  -0.127668  1.99845
14.913  -0.107927  1.99884
14.9336  -0.0923751  1.99911
14.9484  -0.080081  1.99931
14.959  -0.0703307  1.99945
14.9676  -0.06172  1.99957
14.9745  -0.0541077  1.99966
14.98  -0.0473707  1.99973
14.984  -0.0419947  1.99979
14.9873  -0.0370828  1.99983
14.99  -0.032717  1.99987
14.9921  -0.028833  1.99989
14.994  -0.0249924  1.99992
14.9955  -0.0215734  1.99994
14.9966  -0.018527  1.99995
14.9976  -0.01551  1.99997
14.9984  -0.0125228  1.99998
14.999  -0.00985991  1.99999
14.9994  -0.00748428  1.99999
14.9997  -0.00512867  2
14.9999  -0.00279322  2
15  -0.00139289  2
15  0  2
6.74582  1.04999  1.88994
7.62739  1.04938  1.9017
8.57571  1.04636  1.91434
9.28954  1.04122  1.92386
9.89362  1.03349  1.93191
10.3772  1.02387  1.93836
10.7794  1.0125  1.94373
11.0608  1.0016  1.94748
11.3108  0.988595  1.95081
11.5278  0.973897  1.9537
11.7261  0.957103  1.95635
11.9128  0.93794  1.95884
12.0925  0.916164  1.96123
12.2681  0.891534  1.96358
12.4421  0.863796  1.9659
12.6379  0.828732  1.96851
12.8433  0.787927  1.97124
13.0559  0.741665  1.97408
13.2726  0.690479  1.97697
13.4896  0.635184  1.97986
13.7025  0.576864  1.9827
13.8868  0.522892  1.98516
14.0608  0.468604  1.98748
14.2218  0.415054  1.98962
14.3674  0.363218  1.99157
14.4965  0.313929  1.99329
14.6082  0.267831  1.99478
14.7028  0.225361  1.99604
14.7811  0.186758  1.99708
14.8442  0.152087  1.99792
14.884  0.127668  1.99845
14.913  0.107927  1.99884
14.9336  0.0923751  1.99911
14.9484  0.080081  1.99931
14.959  0.0703307  1.99945
14.9676  0.06172  1.99957
14.9745  0.0541077  1.99966
14.98  0.0473707  1.99973
14.984  0.0419947  1.99979
14.9873  0.0370828  1.99983
14.99  0.032717  1.99987
14.9921  0.028833  1.99989
14.994  0.0249924  1.99992
14.9955  0.0215734  1.99994
14.9966  0.018527  1.99995
14.9976  0.01551  1.99997
14.9984  0.0125228  1.99998
14.999  0.00985991  1.99999
14.9994  0.00748428  1.99999
14.9997  0.00512867  2
14.9999  0.00279322  2
15  0.00139289  2
3.92378  0  1.85232
7.17821  0  1.89571
8.0986  0  1.90798
9.59427  0  1.92792
10.1383  0  1.93518
10.5812  0  1.94108
11.8194  0  1.95759
12.0025  0  1.96003
12.18  0  1.9624
12.3548  0  1.96473
12.5397  0  1.9672
12.7404  0  1.96987
12.9497  0  1.97266
13.1646  0  1.97553
13.3817  0  1.97842
13.597  0  1.98129
13.7956  0  1.98394
13.9749  0  1.98633
14.1426  0  1.98857
14.296  0  1.99061
14.4334  0  1.99244
14.5537  0  1.99405
14.6569  0  1.99542
14.7432  0  1.99658
14.8138  0  1.99752
14.8648  0  1.9982
2.19583  0.525  1.82928
2.19583  -0.525  1.82928
5.34718  0.525  1.8713
5.34718  -0.525  1.8713
6.95958  0.524978  1.89279
7.40105  0.524837  1.89868
6.95958  -0.524978  1.89279
7.86189  0.52446  1.90483
7.40105  -0.524837  1.89868
7.86189  -0.52446  1.90483
9.08866  0.521508  1.92118
9.08866  -0.521508  1.92118
10.8248  0.505474  1.94433
10.9538  0.503067  1.94605
10.8248  -0.505474  1.94433
11.566  0.485465  1.95421
10.9538  -0.503067  1.94605
11.6737  0.480941  1.95565
11.566  -0.485465  1.95421
11.6737  -0.480941  1.95565
13.4358  0.324634  1.97914
13.65  0.295821  1.982
13.4358  -0.324634  1.97914
13.65  -0.295821  1.982
14.8901  0.0618368  1.99853
14.902  0.0578278  1.99869
14.9112  0.0546154  1.99882
14.9183  0.0520369  1.99891
14.9245  0.0497345  1.99899
14.9298  0.0476774  1.99906
14.9345  0.0458385  1.99913
14.9382  0.0443577  1.99918
14.9415  0.0429936  1.99922
14.9444  0.0417717  1.99926
14.9469  0.0406768  1.99929
14.9494  0.0395865  1.99933
14.9516  0.0386091  1.99935
14.9535  0.0377326  1.99938
14.9554  0.0368592  1.99941
14.9573  0.0359889  1.99943
14.9589  0.0352082  1.99945
14.9604  0.0345078  1.99947
14.9618  0.0338093  1.99949
14.9632  0.033113  1.99951
14.9641  0.0326935  1.99952
14.9649  0.0322748  1.99953
14.8901  -0.0618368  1.99853
14.902  -0.0578278  1.99869
14.9112  -0.0546154  1.99882
14.9183  -0.0520369  1.99891
14.9245  -0.0497345  1.99899
14.9298  -0.0476774  1.99906
14.9345  -0.0458385  1.99913
14.9382  -0.0443577  1.99918
14.9415  -0.0429936  1.99922
14.9444  -0.0417717  1.99926
14.9469  -0.0406768  1.99929
14.9494  -0.0395865  1.99933
14.9516  -0.0386091  1.99935
14.9535  -0.0377326  1.99938
14.9554  -0.0368592  1.99941
14.9573  -0.0359889  1.99943
14.9589  -0.0352082  1.99945
14.9604  -0.0345078  1.99947
14.9618  -0.0338093  1.99949
14.9632  -0.033113  1.99951
14.9641  -0.0326935  1.99952
14.9649  -0.0322748  1.99953
1.16638  0.7875  1.81555
1.16638  0.2625  1.81555
1.16638  -0.7875  1.81555
3.10831  0.2625  1.84144
3.10831  -0.2625  1.84144
4.66218  0.7875  1.86216
4.66218  0.2625  1.86216
4.66218  -0.2625  1.86216
4.66218  -0.7875  1.86216
6.02413  0.7875  1.88032
6.12071  1.16573e-16  1.88161
7.06833  0.787437  1.89424
6.02413  -0.7875  1.88032
8.21756  0.785918  1.90957
7.63003  1.16504e-16  1.90173
7.06833  -0.787437  1.89424
8.21756  -0.785918  1.90957
10.6046  0.763424  1.94139
11.2635  0.495675  1.95018
10.6046  -0.763424  1.94139
11.2635  1.10062e-16  1.95018
11.7932  0.712958  1.95724
11.6927  0.240044  1.9559
11.2635  -0.495675  1.95018
11.8378  0.236512  1.95784
11.6927  -0.240044  1.9559
11.8378  -0.236512  1.95784
11.7932  -0.712958  1.95724
13.2472  0.522522  1.97663
13.3545  0.50256  1.97806
13.5703  0.460178  1.98094
13.301  0.17087  1.97735
13.7699  0.418144  1.9836
13.5168  0.156988  1.98022
13.301  -0.17087  1.97735
13.7233  0.142735  1.98298
13.8155  0.136045  1.98421
13.5168  -0.156988  1.98022
13.2472  -0.522522  1.97663
13.3545  -0.50256  1.97806
13.7233  -0.142735  1.98298
13.8155  -0.136045  1.98421
13.5703  -0.460178  1.98094
13.7699  -0.418144  1.9836
14.8066  0.129877  1.99742
14.8398  0.115975  1.99786
14.8236  0.0409636  1.99765
14.8542  0.0365369  1.99806
14.973  0.0419061  1.99964
14.8841  0.0319044  1.99845
14.9753  0.0398414  1.99967
14.8891  0.0310851  1.99852
14.9775  0.0379414  1.9997
14.8931  0.0304243  1.99857
14.9793  0.0362413  1.99972
14.8966  0.0298317  1.99862
14.9808  0.0347193  1.99974
14.8997  0.0293002  1.99866
14.9824  0.033205  1.99976
14.9025  0.0288232  1.9987
14.9837  0.0318487  1.99978
14.9048  0.0284379  1.99873
14.9848  0.0306334  1.9998
14.9068  0.0280819  1.99876
14.9086  0.0277621  1.99878
14.9859  0.0294233  1.99981
14.9102  0.0274749  1.9988
14.9118  0.0271882  1.99882
14.987  0.0282183  1.99983
14.9133  0.0269306  1.99884
14.9879  0.0271382  1.99984
14.9146  0.0266992  1.99886
14.9158  0.026468  1.99888
14.9887  0.0261698  1.99985
14.9171  0.0262372  1.99889
14.9182  0.0260298  1.99891
14.9895  0.0252048  1.99986
14.9193  0.0258434  1.99892
14.9203  0.0256572  1.99894
14.9902  0.0242432  1.99987
14.9213  0.0254712  1.99895
14.9906  0.0236643  1.99988
14.9219  0.025359  1.99896
14.9225  0.0252469  1.99897
14.9911  0.0230866  1.99988
14.8236  -0.0409636  1.99765
14.8542  -0.0365369  1.99806
14.8841  -0.0319044  1.99845
14.8891  -0.0310851  1.99852
14.8931  -0.0304243  1.99857
14.8966  -0.0298317  1.99862
14.8997  -0.0293002  1.99866
14.9025  -0.0288232  1.9987
14.9048  -0.0284379  1.99873
14.9068  -0.0280819  1.99876
14.9086  -0.0277621  1.99878
14.9102  -0.0274749  1.9988
14.9118  -0.0271882  1.99882
14.9133  -0.0269306  1.99884
14.9146  -0.0266992  1.99886
14.9158  -0.026468  1.99888
14.9171  -0.0262372  1.99889
14.9182  -0.0260298  1.99891
14.9193  -0.0258434  1.99892
14.9203  -0.0256572  1.99894
14.9213  -0.0254712  1.99895
14.9219  -0.025359  1.99896
14.9225  -0.0252469  1.99897
14.9911  0.00769553  1.99988
14.8066  -0.129877  1.99742
14.8398  -0.115975  1.99786
14.973  -0.0419061  1.99964
14.9753  -0.0398414  1.99967
14.9775  -0.0379414  1.9997
14.9793  -0.0362413  1.99972
14.9808  -0.0347193  1.99974
14.9824  -0.033205  1.99976
14.9837  -0.0318487  1.99978
14.9848  -0.0306334  1.9998
14.9859  -0.0294233  1.99981
14.987  -0.0282183  1.99983
14.9879  -0.0271382  1.99984
14.9887  -0.0261698  1.99985
14.9895  -0.0252048  1.99986
14.9902  -0.0242432  1.99987
14.9906  -0.0236643  1.99988
14.9911  -0.0230866  1.99988
0.601555  0.91875  1.80802
0.601555  0.65625  1.80802
0.601555  -0.39375  1.80802
1.69698  0.65625  1.82263
1.69698  0.39375  1.82263
0.601555  -0.91875  1.80802
1.69698  -0.13125  1.82263
2.66545  0.91875  1.83554
1.69698  -0.65625  1.82263
2.66545  0.39375  1.83554
2.66545  0.13125  1.83554
2.66545  -0.39375  1.83554
3.52692  0.65625  1.84703
2.66545  -0.91875  1.83554
3.52692  0.13125  1.84703
3.92378  0.525  1.85232
3.52692  -0.13125  1.84703
3.52692  -0.65625  1.84703
4.30136  0.39375  1.85735
4.30136  0.13125  1.85735
3.92378  -0.525  1.85232
4.30136  -0.13125  1.85735
4.30136  -0.39375  1.85735
5.00901  0.65625  1.86679
5.00901  0.39375  1.86679
5.00901  0.13125  1.86679
5.68334  0.91875  1.87578
5.00901  -0.39375  1.86679
5.00901  -0.65625  1.86679
5.73034  0.2625  1.8764
6.37622  0.91875  1.88502
5.73034  -0.2625  1.8764
6.42649  0.525  1.88569
5.68334  -0.91875  1.87578
6.52815  0.2625  1.88704
7.34499  0.918514  1.89793
6.52815  -0.2625  1.88704
6.42649  -0.525  1.88569
6.37622  -0.91875  1.88502
7.34499  -0.918514  1.89793
10.3748  0.383973  1.93833
10.3748  -0.383973  1.93833
11.6796  0.600846  1.95573
11.9424  0.817762  1.95923
11.4791  0.122189  1.95305
11.4791  -0.122189  1.95305
11.9648  0.582491  1.95953
12.0082  0.11585  1.96011
11.6796  -0.600846  1.95573
12.0082  -0.11585  1.96011
11.9648  -0.582491  1.95953
13.0459  0.650949  1.97394
11.9424  -0.817762  1.95923
13.1518  0.629577  1.97536
13.4223  0.571168  1.97896
13.0989  0.274439  1.97465
13.3419  0.420788  1.97789
13.126  0.0906925  1.97501
13.6368  0.520902  1.98182
13.5033  0.394713  1.98004
13.3686  0.249943  1.97825
13.2329  0.0875188  1.97644
13.126  -0.0906925  1.97501
13.8287  0.472731  1.98438
13.7103  0.35916  1.9828
13.2329  -0.0875188  1.97644
13.5837  0.228714  1.98112
13.0989  -0.274439  1.97465
13.9182  0.449172  1.98558
13.4495  0.0807122  1.97933
13.7334  0.213017  1.98311
13.4495  -0.0807122  1.97933
13.9403  0.316609  1.98587
13.6605  0.0735881  1.98214
13.3686  -0.249943  1.97825
13.0459  -0.650949  1.97394
13.1518  -0.629577  1.97536
13.6605  -0.0735881  1.98214
13.3419  -0.420788  1.97789
13.5837  -0.228714  1.98112
13.8961  0.0650116  1.98528
13.5033  -0.394713  1.98004
13.9831  0.0616612  1.98644
13.7334  -0.213017  1.98311
13.8961  -0.0650116  1.98528
13.4223  -0.571168  1.97896
13.9831  -0.0616612  1.98644
13.7103  -0.35916  1.9828
13.6368  -0.520902  1.98182
13.9403  -0.316609  1.98587
13.8287  -0.472731  1.98438
14.7149  0.192181  1.9962
13.9182  -0.449172  1.98558
14.8627  0.123405  1.99817
14.8789  0.114546  1.99839
14.7364  0.0784711  1.99649
14.7462  0.0255532  1.99662
14.7851  0.0230831  1.99713
14.8586  0.0538166  1.99811
14.7462  -0.0255532  1.99662
14.9557  0.0459075  1.99941
14.9573  0.0450123  1.99943
14.9587  0.0441857  1.99945
14.9599  0.0434437  1.99947
14.961  0.0427775  1.99948
14.7851  -0.0230831  1.99713
14.9621  0.0421127  1.99949
14.963  0.0415157  1.99951
14.9639  0.0409795  1.99952
14.9955  0.0188324  1.99994
14.9743  0.0339319  1.99966
14.7364  -0.0784711  1.99649
14.9751  0.0333521  1.99967
14.996  0.0176299  1.99995
14.9389  0.0330294  1.99919
14.9758  0.0328314  1.99968
14.94  0.0326936  1.9992
14.9765  0.0323116  1.99969
14.9965  0.0165521  1.99995
14.8886  0.0155853  1.99851
14.8895  0.015512  1.99853
14.9411  0.0323584  1.99921
14.9772  0.031793  1.9997
14.8903  0.0154461  1.99854
14.9421  0.0320571  1.99923
14.9969  0.0154785  1.99996
14.9778  0.031327  1.9997
14.891  0.0153868  1.99855
14.8917  0.0153275  1.99856
14.9429  0.0317864  1.99924
14.9784  0.0309084  1.99971
14.8924  0.0152683  1.99857
14.893  0.0152151  1.99857
14.9438  0.031516  1.99925
14.9973  0.0144092  1.99996
14.9789  0.0304905  1.99972
14.8936  0.0151672  1.99858
14.8942  0.0151193  1.99859
14.9446  0.031246  1.99926
14.9794  0.0300732  1.99973
14.9975  0.0137655  1.99997
14.8948  0.0150715  1.9986
14.9451  0.0310831  1.99927
14.9798  0.0298216  1.99973
14.8951  0.0150426  1.9986
14.8955  0.0150137  1.99861
14.9456  0.0309204  1.99928
14.9801  0.0295702  1.99973
14.9977  0.0131235  1.99997
14.8886  -0.0155853  1.99851
14.8895  -0.015512  1.99853
14.8903  -0.0154461  1.99854
14.891  -0.0153868  1.99855
14.8917  -0.0153275  1.99856
14.8924  -0.0152683  1.99857
14.893  -0.0152151  1.99857
14.8936  -0.0151672  1.99858
14.8942  -0.0151193  1.99859
14.8948  -0.0150715  1.9986
14.8951  -0.0150426  1.9986
14.8955  -0.0150137  1.99861
14.9649  0.0161374  1.99953
14.9977  0.0093739  1.99997
14.8586  -0.0538166  1.99811
14.7149  -0.192181  1.9962
14.9649  0  1.99953
14.9389  -0.0330294  1.99919
14.94  -0.0326936  1.9992
14.9411  -0.0323584  1.99921
14.9421  -0.0320571  1.99923
14.9429  -0.0317864  1.99924
14.9438  -0.031516  1.99925
14.9446  -0.031246  1.99926
14.9451  -0.0310831  1.99927
14.9456  -0.0309204  1.99928
14.9801  -0.00591405  1.99973
14.8627  -0.123405  1.99817
14.8789  -0.114546  1.99839
14.9557  -0.0459075  1.99941
14.9573  -0.0450123  1.99943
14.9587  -0.0441857  1.99945
14.9599  -0.0434437  1.99947
14.961  -0.0427775  1.99948
14.9621  -0.0421127  1.99949
14.963  -0.0415157  1.99951
14.9639  -0.0409795  1.99952
14.9743  -0.0339319  1.99966
14.9751  -0.0333521  1.99967
14.9758  -0.0328314  1.99968
14.9765  -0.0323116  1.99969
14.9772  -0.031793  1.9997
14.9778  -0.031327  1.9997
14.9784  -0.0309084  1.99971
14.9789  -0.0304905  1.99972
14.9794  -0.0300732  1.99973
14.9798  -0.0298216  1.99973
14.9801  -0.0295702  1.99973
14.9977  -0.00562434  1.99997
14.9955  -0.0188324  1.99994
14.996  -0.0176299  1.99995
14.9965  -0.0165521  1.99995
14.9969  -0.0154785  1.99996
14.9973  -0.0144092  1.99996
14.9975  -0.0137655  1.99997
14.9977  -0.0131235  1.99997
0.305525  0.984375  1.80407
0.305525  0.853125  1.80407
0.305525  0.328125  1.80407
0.888404  0.853125  1.81185
0.888404  0.721875  1.81185
0.888404  0.459375  1.81185
1.4358  0.984375  1.81914
1.4358  0.590625  1.81914
0.888404  -0.065625  1.81185
0.305525  -0.721875  1.80407
1.95022  0.853125  1.826
0.305525  -0.984375  1.80407
1.4358  0.065625  1.81914
0.888404  -0.590625  1.81185
2.19583  0.7875  1.82928
0.888404  -0.853125  1.81185
1.95022  0.196875  1.826
2.43414  0.721875  1.83246
1.4358  -0.459375  1.81914
2.43414  0.328125  1.83246
1.95022  -0.328125  1.826
1.4358  -0.984375  1.81914
2.89007  0.590625  1.83853
3.10831  0.7875  1.84144
2.43414  -0.196875  1.83246
1.95022  -0.853125  1.826
2.19583  -0.7875  1.82928
2.89007  -0.065625  1.83853
3.32049  0.459375  1.84427
2.43414  -0.721875  1.83246
3.72791  0.853125  1.84971
3.32049  0.065625  1.84427
2.89007  -0.590625  1.83853
3.72791  0.328125  1.84971
4.11482  0.721875  1.85486
3.32049  -0.459375  1.84427
3.10831  -0.7875  1.84144
4.30136  0.65625  1.85735
4.11482  0.328125  1.85486
3.72791  -0.328125  1.84971
4.48371  0.590625  1.85978
4.83709  0.984375  1.86449
4.11482  -0.196875  1.85486
3.72791  -0.853125  1.84971
4.48371  0.065625  1.85978
4.83709  0.590625  1.86449
4.11482  -0.721875  1.85486
4.30136  -0.65625  1.85735
4.48371  -0.590625  1.85978
4.83709  -0.065625  1.86449
4.83709  -0.459375  1.86449
4.83709  -0.984375  1.86449
6.19835  0.984375  1.88264
6.22286  0.65625  1.88297
6.58434  0.7875  1.88779
6.27212  0.2625  1.88363
6.32168  0.13125  1.88429
6.32168  -0.13125  1.88429
6.27212  -0.2625  1.88363
6.74093  0.393748  1.88988
6.22286  -0.65625  1.88297
6.8471  0.131248  1.89129
6.19835  -0.984375  1.88264
6.8471  -0.131248  1.89129
6.74093  -0.393748  1.88988
6.58434  -0.7875  1.88779
10.1371  0.707512  1.93516
10.1371  -0.707512  1.93516
11.8191  0.533243  1.95759
12.1157  0.741892  1.96154
12.0721  0.287128  1.96096
12.1584  0.283535  1.96211
11.8191  -0.533243  1.95759
12.0721  -0.287128  1.96096
12.1584  -0.283535  1.96211
12.9712  0.522893  1.97295
12.1157  -0.741892  1.96154
12.9197  0.144704  1.97226
13.1732  0.401886  1.97564
13.2209  0.351531  1.97628
13.0243  0.140397  1.97366
13.2002  0.221256  1.976
13.038  0.0466076  1.97384
13.166  0.179039  1.97555
12.9197  -0.144704  1.97226
13.038  -0.0466076  1.97384
13.0243  -0.140397  1.97366
13.166  -0.179039  1.97555
13.9903  0.460334  1.98654
13.2002  -0.221256  1.976
12.9712  -0.522893  1.97295
14.0011  0.396195  1.98668
13.8381  0.26874  1.98451
13.1732  -0.401886  1.97564
13.2209  -0.351531  1.97628
14.0845  0.374502  1.98779
13.8784  0.229877  1.98505
13.9002  0.0972808  1.98534
14.0431  0.148215  1.98724
13.9002  -0.0972808  1.98534
14.0639  0.0292256  1.98752
14.0639  -0.0292256  1.98752
13.8381  -0.26874  1.98451
13.8784  -0.229877  1.98505
14.0431  -0.148215  1.98724
14.6244  0.179298  1.99499
14.675  0.163798  1.99567
14.0011  -0.396195  1.98668
13.9903  -0.460334  1.98654
14.0845  -0.374502  1.98779
14.7727  0.107472  1.99697
14.6501  0.0467783  1.99533
14.9082  0.104395  1.99878
14.6978  0.0426989  1.99597
14.6501  -0.0467783  1.99533
14.6978  -0.0426989  1.99597
14.9384  0.0498096  1.99918
14.6244  -0.179298  1.99499
14.675  -0.163798  1.99567
14.9911  0.0192388  1.99988
14.7727  -0.107472  1.99697
14.9949  0.00997257  1.99993
14.9801  0.00591405  1.99973
14.9994  0.00231202  1.99999
14.9384  -0.0498096  1.99918
14.9911  -0.00769553  1.99988
14.9082  -0.104395  1.99878
14.9861  -0.0170434  1.99981
14.9994  -0.00508643  1.99999
0.153968  0.689063  1.80205
0.746108  1.01719  1.80995
0.601555  0.39375  1.80802
0.601555  0.13125  1.80802
0.454707  -0.0328125  1.80606
0.153968  -0.360938  1.80205
2.07396  0.951563  1.82765
1.16638  -0.2625  1.81555
0.746108  -1.01719  1.80995
2.77857  1.01719  1.83705
2.19583  0  1.82928
3.21514  0.885938  1.84287
2.07396  -0.951563  1.82765
3.82647  0.951563  1.85102
2.77857  -1.01719  1.83705
4.30136  0.91875  1.85735
3.21514  -0.885938  1.84287
4.48371  0.853125  1.85978
3.82647  -0.951563  1.85102
4.30136  -0.91875  1.85735
4.48371  -0.853125  1.85978
6.7698  0.656245  1.89026
6.68595  0.0656248  1.88915
6.7698  -0.656245  1.89026
9.86855  0.3554  1.93158
9.86855  -0.3554  1.93158
12.1917  0.81804  1.96256
12.0614  0.431335  1.96082
12.2993  0.581966  1.96399
12.2562  0.139581  1.96342
12.8043  0.671604  1.97072
12.3473  0.137395  1.96463
12.2562  -0.139581  1.96342
12.0614  -0.431335  1.96082
12.7786  0.475717  1.97038
12.3473  -0.137395  1.96463
12.2993  -0.581966  1.96399
12.83  0.0741263  1.97107
12.1917  -0.81804  1.96256
13.0094  0.211535  1.97346
12.83  -0.0741263  1.97107
12.7786  -0.475717  1.97038
13.0094  -0.211535  1.97346
12.8043  -0.671604  1.97072
14.0132  0.347729  1.98684
14.1541  0.396937  1.98872
14.2306  0.373389  1.98974
13.9724  0.124154  1.9863
14.1926  0.172659  1.98924
14.0933  0.071575  1.98791
14.5025  0.262834  1.99337
14.1728  0.067454  1.98897
13.9724  -0.124154  1.9863
14.5624  0.242322  1.99416
14.0933  -0.071575  1.98791
14.1728  -0.067454  1.98897
14.671  0.187558  1.99561
14.5328  0.102891  1.99377
14.0132  -0.347729  1.98684
14.1926  -0.172659  1.98924
14.5897  0.0947786  1.99453
14.6825  0.124735  1.99577
14.6031  0.0253131  1.99471
14.8076  0.113318  1.99743
14.6946  0.0644693  1.99593
14.1541  -0.396937  1.98872
14.6031  -0.0253131  1.99471
14.2306  -0.373389  1.98974
14.5328  -0.102891  1.99377
14.5897  -0.0947786  1.99453
14.6946  -0.0644693  1.99593
14.5025  -0.262834  1.99337
14.6825  -0.124735  1.99577
14.5624  -0.242322  1.99416
14.671  -0.187558  1.99561
14.9832  0.0202087  1.99978
14.8076  -0.113318  1.99743
14.9965  0.000589753  1.99995
14.9691  -0.0244466  1.99959
14.9949  -0.0128219  1.99993
1.50186  1.03359  1.82002
2.94521  0.902344  1.83927
1.50186  -1.03359  1.82002
3.32049  0.984375  1.84427
3.87527  1.00078  1.85167
2.94521  -0.902344  1.83927
3.32049  -0.984375  1.84427
3.87527  -1.00078  1.85167
9.58148  0.697386  1.92775
9.58148  -0.697386  1.92775
11.9493  0.335579  1.95932
12.1798  0.50869  1.9624
12.3705  0.725126  1.96494
12.2287  0.434659  1.96305
12.6095  0.664636  1.96813
11.9493  -0.335579  1.95932
12.7081  0.64963  1.96944
12.5613  0.316091  1.96748
12.4431  0.067472  1.96591
12.8749  0.500526  1.97166
12.6588  0.244852  1.96878
12.4431  -0.067472  1.96591
12.2287  -0.434659  1.96305
12.1798  -0.50869  1.9624
12.8491  0.307309  1.97132
12.894  0.340051  1.97192
12.5613  -0.316091  1.96748
12.6588  -0.244852  1.96878
12.3705  -0.725126  1.96494
12.8491  -0.307309  1.97132
12.6095  -0.664636  1.96813
12.894  -0.340051  1.97192
12.7081  -0.64963  1.96944
12.8749  -0.500526  1.97166
14.1586  0.3751  1.98878
14.3002  0.369412  1.99067
14.1044  0.255622  1.98806
14.1392  0.269938  1.98852
14.1435  0.124186  1.98858
14.3545  0.229971  1.99139
14.2449  0.0826802  1.98993
14.2353  0.0320616  1.9898
14.3169  0.077515  1.99089
14.2353  -0.0320616  1.9898
14.1435  -0.124186  1.98858
14.5797  0.144357  1.9944
14.2449  -0.0826802  1.98993
14.1044  -0.255622  1.98806
14.484  0.0547998  1.99312
14.3169  -0.077515  1.99089
14.6374  0.11162  1.99516
14.1392  -0.269938  1.98852
14.484  -0.0547998  1.99312
14.1586  -0.3751  1.98878
14.3545  -0.229971  1.99139
14.3002  -0.369412  1.99067
14.5797  -0.144357  1.9944
14.6374  -0.11162  1.99516
1.72906  0.943359  1.82305
1.72906  -0.943359  1.82305
12.4655  0.517235  1.96621
12.4295  0.44649  1.96573
12.3937  0.374626  1.96525
12.6939  0.568764  1.96925
12.4538  0.228921  1.96605
12.6697  0.398484  1.96893
12.7538  0.277126  1.97005
12.7443  0.15783  1.96992
12.4538  -0.228921  1.96605
12.3937  -0.374626  1.96525
12.4295  -0.44649  1.96573
12.4655  -0.517235  1.96621
12.7443  -0.15783  1.96992
12.7538  -0.277126  1.97005
12.6697  -0.398484  1.96893
12.6939  -0.568764  1.96925
14.1853  0.323961  1.98914
14.2935  0.29856  1.99058
14.2752  0.204415  1.99034
14.4304  0.249407  1.99241
14.2557  0.122878  1.99008
14.4465  0.161519  1.99262
14.4288  0.0930314  1.99238
14.3762  0.0365625  1.99168
14.2557  -0.122878  1.99008
14.3762  -0.0365625  1.99168
14.2752  -0.204415  1.99034
14.4288  -0.0930314  1.99238
14.1853  -0.323961  1.98914
14.2935  -0.29856  1.99058
14.4465  -0.161519  1.99262
14.4304  -0.249407  1.99241
12.5373  0.592403  1.96716
12.5793  0.544454  1.96772
12.6417  0.0808605  1.96856
12.6417  -0.0808605  1.96856
12.5373  -0.592403  1.96716
12.5793  -0.544454  1.96772
14.3537  0.145291  1.99138
14.5073  0.193512  1.99343
14.3537  -0.145291  1.99138
14.5073  -0.193512  1.99343
12.5474  0.153563  1.9673
12.5474  -0.153563  1.9673
678  676  343
679  572  569
680  570  347
680  571  570
681  576  208
681  572  679
292  181  291
681  679  576
681  208  575
466  462  256
681  575  572
682  578  350
682  350  581
683  581  582
684  211  586
684  586  683
466  134  462
684  683  582
684  583  211
684  582  583
685  57  214
685  589  57
685  214  139
685  139  594
293  181  292
685  594  589
686  598  599
686  364  594
686  594  596
467  134  466
686  596  598
686  599  366
686  366  364
687  599  141
687  218  4
687  141  218
687  4  600
687  600  599
467  466  256
688  61  601
688  601  370
688  370  113
689  112  688
689  688  113
293  182  181
689  602  8
689  371  602
689  113  371
690  69  70
690  604  69
691  376  604
294  182  293
468  286  463
691  606  605
468  463  168
692  604  690
693  118  117
693  117  606
694  381  610
694  73  381
469  465  257
694  72  73
295  182  294
695  118  693
696  609  117
696  117  118
470  464  102
697  611  380
470  287  464
697  608  609
471  134  467
471  467  256
296  182  295
471  256  258
699  696  118
701  612  121
702  16  611
702  17  16
702  611  700
297  182  296
703  615  612
703  385  615
297  183  182
472  286  468
704  701  121
704  121  619
704  120  701
472  468  168
706  621  397
706  619  621
473  469  257
707  20  19
707  625  405
707  405  20
708  402  626
708  626  630
474  471  258
298  183  297
474  134  471
709  630  79
709  79  80
299  183  298
710  709  80
711  632  631
711  633  412
711  412  632
711  631  633
713  635  412
713  412  633
475  283  285
475  278  280
713  127  635
475  281  283
475  272  274
300  183  299
475  266  267
714  81  82
475  474  258
475  280  281
475  269  270
715  127  713
475  270  272
475  274  275
716  634  416
716  416  639
716  638  634
475  267  269
716  639  638
475  264  266
717  714  82
717  82  83
475  275  277
475  258  260
475  260  262
718  416  636
718  639  416
475  262  264
718  636  127
475  285  286
475  134  474
475  277  278
476  172  173
476  174  175
719  718  127
301  183  300
720  640  717
476  176  177
720  717  83
720  84  421
476  178  179
720  83  84
476  170  171
720  641  640
476  179  180
720  421  641
476  286  472
476  175  176
476  173  174
476  168  169
476  177  178
476  472  168
476  169  170
476  171  172
722  644  642
722  642  419
302  183  301
477  257  259
477  259  261
477  261  263
477  263  265
477  265  268
477  473  257
478  102  103
478  103  104
478  104  105
725  645  425
478  105  106
725  641  645
478  106  107
478  107  108
478  108  56
725  640  641
726  646  131
478  470  102
726  724  646
478  287  470
726  721  724
479  290  289
727  247  248
479  291  290
727  159  428
727  248  159
727  428  645
727  645  247
479  289  134
728  426  648
728  725  425
728  425  426
728  648  646
729  26  644
729  27  26
730  726  131
730  131  649
730  130  726
731  27  729
480  291  479
733  730  649
733  732  730
734  649  650
480  479  134
734  650  429
734  429  441
481  291  480
735  29  28
736  653  652
736  441  655
736  655  653
481  480  134
736  734  441
737  30  29
737  29  735
738  652  653
738  31  30
738  494  31
738  737  652
738  653  494
738  30  737
739  447  452
482  291  481
739  452  456
739  460  465
739  180  445
739  654  656
482  481  134
739  456  460
739  311  491
482  292  291
739  656  311
739  477  654
739  469  473
739  491  180
739  473  477
739  465  469
739  445  447
740  181  313
740  655  493
740  493  181
740  313  312
740  312  655
741  311  658
741  657  311
741  505  657
741  658  527
741  527  660
741  660  505
742  197  196
742  662  202
742  660  662
742  196  504
742  198  197
742  199  198
742  200  199
742  201  200
483  292  482
742  202  201
742  505  660
742  504  505
743  662  527
743  526  662
743  327  526
743  663  329
483  482  134
743  328  327
743  329  328
743  527  663
744  57  673
744  1  57
484  292  483
484  483  134
744  673  670
744  665  1
744  541  665
745  337  673
745  675  558
745  557  337
745  558  557
746  4  2
746  676  678
746  2  672
746  678  4
746  672  556
747  675  745
747  745  673
747  565  342
485  292  484
747  342  675
747  677  565
748  569  677
748  747  673
748  673  57
748  677  747
748  576  679
485  484  134
748  57  576
748  679  569
749  571  680
749  678  343
749  343  567
749  567  571
750  678  749
750  680  347
750  347  578
750  749  680
750  578  682
751  678  750
486  292  485
751  682  581
751  683  586
751  581  683
751  750  682
751  586  4
751  4  678
752  61  688
752  145  60
752  688  112
486  485  134
752  112  145
752  60  61
753  8  7
312  33  32
753  7  146
753  146  112
753  689  8
753  112  689
754  376  691
313  33  312
754  691  605
754  227  603
754  377  227
754  603  376
754  605  377
755  604  692
755  606  691
755  691  604
314  38  37
314  39  38
756  70  71
314  40  39
487  486  134
756  692  690
756  690  70
487  292  486
757  606  755
757  693  606
757  755  692
758  71  72
759  379  608
759  229  379
488  292  487
759  608  697
759  380  607
488  293  292
759  607  229
759  697  380
760  758  72
760  72  694
315  40  314
488  487  134
489  488  134
762  118  695
763  694  610
489  293  488
763  698  694
316  41  40
765  699  118
765  118  762
765  762  119
490  310  309
490  134  475
490  489  134
490  298  297
766  609  696
490  294  293
490  293  489
767  609  766
490  295  294
767  697  609
490  306  305
767  766  700
490  296  295
767  700  611
490  309  308
767  611  697
316  40  315
490  297  296
490  299  298
490  300  299
490  301  300
490  302  301
490  305  304
490  303  302
490  304  303
769  610  385
769  763  610
490  307  306
769  385  703
317  41  316
490  308  307
769  698  763
769  612  768
769  768  698
491  476  180
769  703  612
491  286  476
492  287  478
492  478  56
493  289  290
493  290  291
493  291  181
493  288  289
772  18  17
494  312  32
494  32  31
772  17  702
772  702  700
495  475  286
318  41  317
495  490  475
495  310  490
319  41  318
495  286  491
774  19  18
319  42  41
496  309  310
496  186  185
775  706  397
496  185  184
496  187  186
775  397  625
775  705  773
496  188  187
775  619  706
496  305  306
775  773  619
776  707  19
496  308  309
776  19  774
777  775  625
320  42  319
777  707  705
496  184  183
777  625  707
777  705  775
778  630  709
496  183  302
778  709  710
496  304  305
779  80  81
496  302  303
496  303  304
779  710  80
496  306  307
496  307  308
497  496  310
780  633  402
497  188  496
780  402  708
321  42  320
781  712  780
781  780  708
781  708  630
782  780  712
782  713  633
782  715  713
497  189  188
782  633  780
498  189  497
322  42  321
322  43  42
498  497  310
784  715  782
785  715  784
785  127  715
786  128  785
786  785  784
323  43  322
499  189  498
787  785  128
787  127  785
787  719  127
788  639  718
788  718  719
499  498  310
500  190  189
789  724  721
500  189  499
790  719  787
790  788  719
791  788  723
791  639  788
500  499  310
791  722  419
501  500  310