 VARIABLES = X Y Z
 ZONE N = 2752, E = 5337, DATAPACKING= POINT, ZONETYPE= FETRIANGLE
0.6006  -1.47105e-16  -0.253244
0.6006  -1.47105e-16  -0.253244
0.599853  0.0299374  -0.253244
0.597615  0.0598004  -0.253244
0.593892  0.0895148  -0.253244
0.588692  0.119007  -0.253244
0.582028  0.148202  -0.253244
0.573917  0.17703  -0.253244
0.564379  0.205417  -0.253244
0.553439  0.233294  -0.253244
0.541122  0.260591  -0.253244
0.52746  0.287239  -0.253244
0.512487  0.313174  -0.253244
0.496239  0.33833  -0.253244
0.478758  0.362645  -0.253244
0.460086  0.386058  -0.253244
0.440271  0.408512  -0.253244
0.419361  0.42995  -0.253244
0.397409  0.450319  -0.253244
0.374468  0.469568  -0.253244
0.350596  0.48765  -0.253244
0.325853  0.50452  -0.253244
0.3003  0.520135  -0.253244
0.274  0.534457  -0.253244
0.247019  0.54745  -0.253244
0.219424  0.559083  -0.253244
0.191283  0.569325  -0.253244
0.162667  0.578152  -0.253244
0.133646  0.585542  -0.253244
0.104293  0.591476  -0.253244
0.0746808  0.595939  -0.253244
0.0448829  0.598921  -0.253244
0.0149734  0.600413  -0.253244
-0.0149734  0.600413  -0.253244
-0.0448829  0.598921  -0.253244
-0.0746808  0.595939  -0.253244
-0.104293  0.591476  -0.253244
-0.133646  0.585542  -0.253244
-0.162667  0.578152  -0.253244
-0.191283  0.569325  -0.253244
-0.219424  0.559083  -0.253244
-0.247019  0.54745  -0.253244
-0.274  0.534457  -0.253244
-0.3003  0.520135  -0.253244
-0.325853  0.50452  -0.253244
-0.350596  0.48765  -0.253244
-0.374468  0.469568  -0.253244
-0.397409  0.450319  -0.253244
-0.419361  0.42995  -0.253244
-0.440271  0.408512  -0.253244
-0.460086  0.386058  -0.253244
-0.478758  0.362645  -0.253244
-0.496239  0.33833  -0.253244
-0.512487  0.313174  -0.253244
-0.52746  0.287239  -0.253244
-0.541122  0.260591  -0.253244
-0.553439  0.233294  -0.253244
-0.564379  0.205417  -0.253244
-0.573917  0.17703  -0.253244
-0.582028  0.148202  -0.253244
-0.588692  0.119007  -0.253244
-0.593892  0.0895148  -0.253244
-0.597615  0.0598004  -0.253244
-0.599853  0.0299374  -0.253244
-0.6006  -2.06021e-15  -0.253244
-0.599853  -0.0299374  -0.253244
-0.597615  -0.0598004  -0.253244
-0.593892  -0.0895148  -0.253244
-0.588692  -0.119007  -0.253244
-0.582028  -0.148202  -0.253244
-0.573917  -0.17703  -0.253244
-0.564379  -0.205417  -0.253244
-0.553439  -0.233294  -0.253244
-0.541122  -0.260591  -0.253244
-0.52746  -0.287239  -0.253244
-0.512487  -0.313174  -0.253244
-0.496239  -0.33833  -0.253244
-0.478758  -0.362645  -0.253244
-0.460086  -0.386058  -0.253244
-0.440271  -0.408512  -0.253244
-0.419361  -0.42995  -0.253244
-0.397409  -0.450319  -0.253244
-0.374468  -0.469568  -0.253244
-0.350596  -0.48765  -0.253244
-0.325853  -0.50452  -0.253244
-0.3003  -0.520135  -0.253244
-0.274  -0.534457  -0.253244
-0.247019  -0.54745  -0.253244
-0.219424  -0.559083  -0.253244
-0.191283  -0.569325  -0.253244
-0.162667  -0.578152  -0.253244
-0.133646  -0.585542  -0.253244
-0.104293  -0.591476  -0.253244
-0.0746808  -0.595939  -0.253244
-0.0448829  -0.598921  -0.253244
-0.0149734  -0.600413  -0.253244
0.0149734  -0.600413  -0.253244
0.0448829  -0.598921  -0.253244
0.0746808  -0.595939  -0.253244
0.104293  -0.591476  -0.253244
0.133646  -0.585542  -0.253244
0.162667  -0.578152  -0.253244
0.191283  -0.569325  -0.253244
0.219424  -0.559083  -0.253244
0.247019  -0.54745  -0.253244
0.274  -0.534457  -0.253244
0.3003  -0.520135  -0.253244
0.325853  -0.50452  -0.253244
0.350596  -0.48765  -0.253244
0.374468  -0.469568  -0.253244
0.397409  -0.450319  -0.253244
0.419361  -0.42995  -0.253244
0.440271  -0.408512  -0.253244
0.460086  -0.386058  -0.253244
0.478758  -0.362645  -0.253244
0.496239  -0.33833  -0.253244
0.512487  -0.313174  -0.253244
0.52746  -0.287239  -0.253244
0.541122  -0.260591  -0.253244
0.553439  -0.233294  -0.253244
0.564379  -0.205417  -0.253244
0.573917  -0.17703  -0.253244
0.582028  -0.148202  -0.253244
0.588692  -0.119007  -0.253244
0.593892  -0.0895148  -0.253244
0.597615  -0.0598004  -0.253244
0.599853  -0.0299374  -0.253244
0  0  -1.65324
0.0694761  -1.70167e-17  -1.56978
0.134683  -3.29878e-17  -1.48632
0.194169  -4.75577e-17  -1.40492
0.248963  -6.09783e-17  -1.32447
0.299234  -7.32912e-17  -1.24495
0.345143  -8.45355e-17  -1.16629
0.38684  -9.47484e-17  -1.08846
0.424467  -1.03964e-16  -1.01139
0.458156  -1.12216e-16  -0.935044
0.488029  -1.19533e-16  -0.859349
0.514197  -1.25942e-16  -0.784251
0.534792  -1.30986e-16  -0.716663
0.552588  -1.35345e-16  -0.649075
0.567584  -1.39018e-16  -0.581488
0.579781  -1.42005e-16  -0.5139
0.589178  -1.44307e-16  -0.446312
0.595775  -1.45923e-16  -0.378724
0.599394  -1.46809e-16  -0.315984
0  0  -1.65324
0.0694761  -1.70167e-17  -1.56978
0.134683  -3.29878e-17  -1.48632
0.194169  -4.75577e-17  -1.40492
0.248963  -6.09783e-17  -1.32447
0.299234  -7.32912e-17  -1.24495
0.345143  -8.45355e-17  -1.16629
0.38684  -9.47484e-17  -1.08846
0.424467  -1.03964e-16  -1.01139
0.458156  -1.12216e-16  -0.935044
0.488029  -1.19533e-16  -0.859349
0.514197  -1.25942e-16  -0.784251
0.534792  -1.30986e-16  -0.716663
0.552588  -1.35345e-16  -0.649075
0.567584  -1.39018e-16  -0.581488
0.579781  -1.42005e-16  -0.5139
0.589178  -1.44307e-16  -0.446312
0.595775  -1.45923e-16  -0.378724
0.599394  -1.46809e-16  -0.315984
0.0691309  0.00691759  -1.56978
0.0680986  0.0137664  -1.56978
0.0663895  0.0204784  -1.56978
0.134014  0.0134101  -1.48632
0.0640206  0.0269869  -1.56978
0.132013  0.0266869  -1.48632
0.0610154  0.0332272  -1.56978
0.1287  0.0396985  -1.48632
0.0574039  0.0391373  -1.56978
0.193204  0.019333  -1.40492
0.124107  0.0523156  -1.48632
0.0532218  0.0446584  -1.56978
0.190319  0.0384738  -1.40492
0.118282  0.0644127  -1.48632
0.0485108  0.0497357  -1.56978
0.185543  0.0572323  -1.40492
0.11128  0.0758697  -1.48632
0.247726  0.0247887  -1.32447
0.0433177  0.0543186  -1.56978
0.178922  0.075422  -1.40492
0.103173  0.0865726  -1.48632
0.244027  0.049331  -1.32447
0.037694  0.0583617  -1.56978
0.170523  0.0928621  -1.40492
0.0940407  0.0964152  -1.48632
0.237902  0.0733831  -1.32447
0.0316957  0.0618248  -1.56978
0.16043  0.109379  -1.40492
0.297747  0.0297941  -1.24495
0.0839735  0.105299  -1.48632
0.229413  0.0967059  -1.32447
0.0253825  0.0646735  -1.56978
0.148742  0.124809  -1.40492
0.293301  0.0592921  -1.24495
0.0730718  0.113137  -1.48632
0.218645  0.119068  -1.32447
0.0188169  0.0668794  -1.56978
0.135576  0.138999  -1.40492
0.28594  0.0882008  -1.24495
0.0614439  0.119851  -1.48632
0.205703  0.140246  -1.32447
0.343427  0.0343651  -1.16629
0.0120644  0.0684206  -1.56978
0.121062  0.151807  -1.40492
0.275737  0.116233  -1.24495
0.0492053  0.125373  -1.48632
0.190717  0.16003  -1.32447
0.338299  0.0683887  -1.16629
0.00519196  0.0692818  -1.56978
0.105346  0.163107  -1.40492
0.262794  0.14311  -1.24495
0.0364776  0.129649  -1.48632
0.173835  0.178224  -1.32447
0.329809  0.101733  -1.16629
-0.00173209  0.0694545  -1.56978
0.088582  0.172786  -1.40492
0.384917  0.0385168  -1.08846
0.247239  0.168565  -1.24495
0.0233875  0.132637  -1.48632
0.155226  0.194647  -1.32447
0.318041  0.134065  -1.16629
-0.00863892  0.0689369  -1.56978
0.0709379  0.180747  -1.40492
0.37917  0.0766508  -1.08846
0.229227  0.192344  -1.24495
0.0100649  0.134306  -1.48632
0.135074  0.209135  -1.32447
0.303112  0.165066  -1.16629
-0.0154599  0.0677342  -1.56978
0.0525888  0.186912  -1.40492
0.369653  0.114023  -1.08846
0.208936  0.214212  -1.24495
-0.00335774  0.134641  -1.48632
0.11358  0.221545  -1.32447
0.422358  0.0422633  -1.01139
0.28517  0.194426  -1.16629
-0.0221272  0.0658583  -1.56978
0.0337171  0.191219  -1.40492
0.356463  0.150262  -1.08846
0.186569  0.233951  -1.24495
-0.016747  0.133638  -1.48632
0.0909564  0.231753  -1.32447
0.416051  0.0841065  -1.01139
0.264394  0.221853  -1.16629
-0.0285746  0.0633279  -1.56978
0.0145103  0.193626  -1.40492
0.339731  0.185008  -1.08846
0.162348  0.251364  -1.24495
-0.0299698  0.131306  -1.48632
0.0674292  0.239658  -1.32447
0.405609  0.125114  -1.01139
0.240991  0.247076  -1.16629
-0.0347381  0.0601681  -1.56978
-0.00484077  0.194109  -1.40492
0.45588  0.0456176  -0.935044
0.319622  0.217915  -1.08846
0.136514  0.26628  -1.24495
-0.0428948  0.12767  -1.48632
0.043232  0.245181  -1.32447
0.391136  0.164878  -1.01139
0.215193  0.269843  -1.16629
-0.0405562  0.0564103  -1.56978
-0.0241437  0.192662  -1.40492
0.449072  0.0907819  -0.935044
0.296336  0.248656  -1.08846
0.109322  0.278549  -1.24495
-0.0553934  0.122764  -1.48632
0.018605  0.248267  -1.32447
0.372776  0.203003  -1.01139
0.187256  0.289929  -1.16629
-0.0459714  0.0520919  -1.56978
-0.0432067  0.189301  -1.40492
0.437802  0.135044  -0.935044
0.270106  0.276926  -1.08846
0.0810447  0.28805  -1.24495
-0.0673415  0.116639  -1.48632
0.485604  0.048592  -0.859349
-0.00620682  0.248886  -1.32447
0.350711  0.239111  -1.01139
0.157458  0.307133  -1.16629
-0.0509296  0.0472558  -1.56978
-0.0618402  0.184058  -1.40492
0.42218  0.177964  -0.935044
0.241191  0.302443  -1.08846
0.0519614  0.294688  -1.24495
-0.0786204  0.109354  -1.48632
0.478353  0.0967011  -0.859349
-0.030957  0.247031  -1.32447
0.325161  0.272842  -1.01139
0.126095  0.321284  -1.16629
-0.0553817  0.04195  -1.56978
-0.0798592  0.176986  -1.40492
0.402363  0.219115  -0.935044
0.209878  0.324955  -1.08846
0.0223618  0.298397  -1.24495
-0.0891179  0.100983  -1.48632
0.466348  0.143849  -0.859349
-0.0553995  0.242721  -1.32447
0.296378  0.303862  -1.01139
0.0934786  0.332243  -1.16629
-0.0592833  0.0362273  -1.56978
0.511641  0.0511975  -0.784251
-0.0970845  0.168155  -1.40492
0.378547  0.258089  -0.935044
0.17648  0.344238  -1.08846
-0.00746011  0.299141  -1.24495
-0.0987297  0.0916078  -1.48632
0.449707  0.189568  -0.859349
-0.0792914  0.235999  -1.32447
0.264651  0.331862  -1.01139
0.0599334  0.339899  -1.16629
-0.0625958  0.0301446  -1.56978
0.504001  0.101886  -0.784251
-0.113345  0.157653  -1.40492
0.350968  0.294497  -0.935044
0.141328  0.360099  -1.08846
-0.0372079  0.296912  -1.24495
-0.10736  0.0813222  -1.48632
0.428598  0.233402  -0.859349
-0.102395  0.226931  -1.32447
0.230293  0.356563  -1.01139
0.0257925  0.344177  -1.16629
-0.0652862  0.0237622  -1.56978
0.491352  0.151562  -0.784251
0.532135  0.0532481  -0.716663
-0.128479  0.145584  -1.40492
0.319902  0.327979  -0.935044
0.104772  0.372381  -1.08846
-0.0665858  0.291732  -1.24495
-0.114924  0.0702285  -1.48632
0.403229  0.274917  -0.859349
-0.124481  0.215608  -1.32447
0.193646  0.377721  -1.01139
-0.00860464  0.345035  -1.16629
-0.0673277  0.0171437  -1.56978
0.47382  0.199732  -0.784251
0.524188  0.105967  -0.716663
-0.142336  0.132068  -1.40492
0.285656  0.358201  -0.935044
0.067174  0.380963  -1.08846
-0.095302  0.283652  -1.24495
-0.121345  0.0584368  -1.48632
0.373852  0.313699  -0.859349
-0.145331  0.202142  -1.32447
0.155075  0.395125  -1.01139
-0.0429163  0.342464  -1.16629
-0.0687001  0.0103549  -1.56978
0.451579  0.245917  -0.784251
0.511033  0.157633  -0.716663
-0.154778  0.11724  -1.40492
0.248571  0.384863  -0.935044
0.0289086  0.385758  -1.08846
-0.123071  0.272754  -1.24495
0.549842  0.05502  -0.649075
-0.126561  0.0460643  -1.48632
0.34076  0.349364  -0.859349
-0.164735  0.186668  -1.32447
0.114963  0.408602  -1.01139
-0.0768014  0.336489  -1.16629
-0.0693898  0.0034631  -1.56978
0.424849  0.289657  -0.784251
0.492798  0.207732  -0.716663
-0.165683  0.101247  -1.40492
0.209016  0.4077  -0.935044
-0.00964418  0.386719  -1.08846
-0.149617  0.259144  -1.24495
0.541631  0.109493  -0.649075
-0.130518  0.0332341  -1.48632
0.304281  0.381557  -0.859349
-0.182503  0.169338  -1.32447
0.0737079  0.418018  -1.01139
-0.109923  0.32717  -1.16629
-0.0693898  -0.0034631  -1.56978
0.393897  0.330519  -0.784251
0.469666  0.255766  -0.716663
-0.17494  0.0842468  -1.40492
0.167383  0.426486  -0.935044
-0.0481011  0.383837  -1.08846
-0.174676  0.242959  -1.24495
0.528038  0.162878  -0.649075
0.564764  0.0565131  -0.581488
-0.133179  0.0200735  -1.48632
0.264778  0.409957  -0.859349
-0.198456  0.150325  -1.32447
0.0317205  0.42328  -1.01139
-0.141953  0.314599  -1.16629
-0.0687001  -0.0103549  -1.56978
0.359031  0.368096  -0.784251
0.441866  0.301259  -0.716663
-0.182459  0.0664097  -1.40492
0.124087  0.441032  -0.935044
-0.0860799  0.377141  -1.08846
-0.197999  0.22436  -1.24495
0.509197  0.214644  -0.649075
0.55633  0.112465  -0.581488
-0.134516  0.0067134  -1.48632
0.222644  0.434284  -0.859349
-0.212438  0.129818  -1.32447
-0.0105823  0.424335  -1.01139
-0.172571  0.298902  -1.16629
-0.0673277  -0.0171437  -1.56978
0.320596  0.402015  -0.784251
0.409674  0.343758  -0.716663
-0.188165  0.0479126  -1.40492
0.079558  0.451196  -0.935044
-0.123203  0.366696  -1.08846
-0.219354  0.203531  -1.24495
0.485295  0.264277  -0.649075
0.542368  0.167298  -0.581488
-0.134516  -0.0067134  -1.48632
0.178297  0.454294  -0.859349
0.5769  0.0577275  -0.5139
-0.224308  0.108021  -1.32447
-0.0527798  0.421173  -1.01139
-0.201475  0.280234  -1.16629
-0.0652862  -0.0237622  -1.56978
0.278975  0.431938  -0.784251
0.373412  0.38284  -0.716663
-0.192  0.0289394  -1.40492
0.0342381  0.456875  -0.935044
-0.159102  0.352607  -1.08846
-0.238529  0.180679  -1.24495
0.45657  0.311284  -0.649075
0.523015  0.220469  -0.581488
-0.133179  -0.0200735  -1.48632
0.132178  0.469789  -0.859349
0.568285  0.114881  -0.5139
-0.233949  0.0851503  -1.32447
-0.0944528  0.413825  -1.01139
-0.228376  0.258781  -1.16629
-0.0625958  -0.0301446  -1.56978
0.234582  0.457569  -0.784251
0.333437  0.418117  -0.716663
-0.193928  0.00967853  -1.40492
-0.0114222  0.458014  -0.935044
-0.19342  0.335013  -1.08846
-0.255334  0.156031  -1.24495
0.423307  0.355197  -0.649075
0.498465  0.271449  -0.581488
-0.130518  -0.0332341  -1.48632
0.0847454  0.480615  -0.859349
0.554023  0.170893  -0.5139
-0.241264  0.0614335  -1.32447
-0.135187  0.402364  -1.01139
-0.253007  0.234757  -1.16629
0.58625  0.0586632  -0.446312
-0.0592833  -0.0362273  -1.56978
0.187857  0.478652  -0.784251
0.290149  0.449239  -0.716663
-0.193928  -0.00967853  -1.40492
-0.0569689  0.454601  -0.935044
-0.225815  0.31409  -1.08846
-0.269601  0.129833  -1.24495
0.385837  0.395579  -0.649075
0.46896  0.319732  -0.581488
-0.126561  -0.0460643  -1.48632
0.0364705  0.486665  -0.859349
0.534254  0.225207  -0.5139
-0.246182  0.037106  -1.32447
-0.174578  0.386904  -1.01139
-0.275124  0.208399  -1.16629
0.577496  0.116743  -0.446312
-0.0553817  -0.04195  -1.56978
0.139265  0.494978  -0.784251
0.243978  0.475896  -0.716663
-0.192  -0.0289394  -1.40492
-0.101949  0.446669  -0.935044
-0.255966  0.290045  -1.08846
-0.281188  0.102344  -1.24495
0.344533  0.432031  -0.649075
0.434795  0.364836  -0.581488
-0.121345  -0.0584368  -1.48632
-0.0121669  0.487878  -0.859349
0.509176  0.277282  -0.5139
-0.248653  0.0124098  -1.32447
-0.212233  0.367599  -1.01139
-0.294507  0.179969  -1.16629
0.563002  0.173663  -0.446312
-0.0509296  -0.0472558  -1.56978
0.592815  0.0593201  -0.378724
0.0892893  0.506385  -0.784251
0.195381  0.497824  -0.716663
-0.188165  -0.0479126  -1.40492
-0.145917  0.434299  -0.935044
-0.283573  0.263118  -1.08846
-0.289981  0.0738382  -1.24495
0.299805  0.464188  -0.649075
0.396308  0.406315  -0.581488
-0.114924  -0.0702285  -1.48632
-0.0606834  0.484242  -0.859349
0.479037  0.326602  -0.5139
-0.248653  -0.0124098  -1.32447
-0.24778  0.344641  -1.01139
-0.310963  0.149752  -1.16629
0.542913  0.228857  -0.446312
-0.0459714  -0.0520919  -1.56978
0.583962  0.118051  -0.378724
0.038426  0.512759  -0.784251
0.144843  0.514804  -0.716663
-0.182459  -0.0664097  -1.40492
-0.188434  0.417612  -0.935044
-0.308362  0.233575  -1.08846
-0.295892  0.0445985  -1.24495
0.252096  0.491732  -0.649075
0.353883  0.443755  -0.581488
-0.10736  -0.0813222  -1.48632
-0.108597  0.475793  -0.859349
0.444138  0.372676  -0.5139
-0.246182  -0.037106  -1.32447
-0.280864  0.318257  -1.01139
-0.324328  0.118046  -1.16629
0.517429  0.281777  -0.446312
-0.0405562  -0.0564103  -1.56978
0.569307  0.175608  -0.378724
0.596415  0.0596803  -0.315984
-0.0128193  0.514037  -0.784251
0.0928657  0.526667  -0.716663
-0.17494  -0.0842468  -1.40492
-0.229078  0.396775  -0.935044
-0.330087  0.201712  -1.08846
-0.298862  0.0149156  -1.24495
0.201883  0.51439  -0.649075
0.307941  0.476785  -0.581488
-0.0987297  -0.0916078  -1.48632
-0.155431  0.462616  -0.859349
0.404824  0.415046  -0.5139
-0.241264  -0.0614335  -1.32447
-0.311156  0.288711  -1.01139
-0.33447  0.0851665  -1.16629
0.486802  0.331896  -0.446312
-0.0347381  -0.0601681  -1.56978
0.548993  0.23142  -0.378724
0.587509  0.118768  -0.315984
-0.0639371  0.510206  -0.784251
0.0399651  0.533297  -0.716663
-0.165683  -0.101247  -1.40492
-0.267446  0.371995  -0.935044
-0.34853  0.167843  -1.08846
-0.298862  -0.0149156  -1.24495
0.149663  0.531935  -0.649075
0.258938  0.505077  -0.581488
-0.0891179  -0.100983  -1.48632
-0.20072  0.444842  -0.859349
0.361487  0.453291  -0.5139
-0.233949  -0.0851503  -1.32447
-0.338356  0.256295  -1.01139
-0.341288  0.0514408  -1.16629
0.451336  0.378716  -0.446312
-0.0285746  -0.0633279  -1.56978
0.523223  0.284932  -0.378724
0.572764  0.176674  -0.315984
-0.11442  0.501305  -0.784251
-0.0133327  0.534626  -0.716663
-0.154778  -0.11724  -1.40492
-0.303156  0.343517  -0.935044
-0.36351  0.132307  -1.08846
-0.295892  -0.0445985  -1.24495
0.0959559  0.544193  -0.649075
0.207362  0.528349  -0.581488
-0.0786204  -0.109354  -1.48632
-0.244015  0.422646  -0.859349
0.314558  0.487031  -0.5139
-0.224308  -0.108021  -1.32447
-0.362194  0.221332  -1.01139
-0.344713  0.0172039  -1.16629
0.411386  0.421773  -0.446312
-0.0221272  -0.0658583  -1.56978
0.492253  0.335612  -0.378724
0.552327  0.232825  -0.315984
-0.163765  0.487421  -0.784251
-0.066498  0.530642  -0.716663
-0.142336  -0.132068  -1.40492
-0.335852  0.311625  -0.935044
-0.374877  0.0954555  -1.08846
-0.289981  -0.0738382  -1.24495
0.0412949  0.551043  -0.649075
0.153725  0.54637  -0.581488
-0.0673415  -0.116639  -1.48632
-0.284884  0.39625  -0.859349
0.264502  0.515931  -0.5139
-0.212438  -0.129818  -1.32447
-0.382432  0.184169  -1.01139
-0.344713  -0.0172039  -1.16629
0.367346  0.460638  -0.446312
-0.0154599  -0.0677342  -1.56978
0.45639  0.382957  -0.378724
0.526401  0.286662  -0.315984
-0.211482  0.468693  -0.784251
-0.119002  0.521384  -0.716663
-0.128479  -0.145584  -1.40492
-0.365211  0.276637  -0.935044
-0.382519  0.0576554  -1.08846
-0.281188  -0.102344  -1.24495
-0.0137764  0.552416  -0.649075
0.09856  0.558961  -0.581488
-0.0553934  -0.122764  -1.48632
-0.322922  0.365915  -0.859349
0.211818  0.539703  -0.5139
-0.198456  -0.150325  -1.32447
-0.398868  0.145176  -1.01139
-0.341288  -0.0514408  -1.16629
0.319656  0.494925  -0.446312
-0.00863892  -0.0689369  -1.56978
0.415992  0.426496  -0.378724
0.495242  0.337651  -0.315984
-0.257098  0.445307  -0.784251
-0.170324  0.506944  -0.716663
-0.113345  -0.157653  -1.40492
-0.390941  0.238899  -0.935044
-0.386359  0.0192824  -1.08846
-0.269601  -0.129833  -1.24495
-0.0687108  0.548299  -0.649075
0.0424156  0.565997  -0.581488
-0.0428948  -0.12767  -1.48632
-0.357751  0.331944  -0.859349
0.157028  0.558111  -0.5139
-0.182503  -0.169338  -1.32447
-0.411341  0.10474  -1.01139
-0.33447  -0.0851665  -1.16629
0.268789  0.524293  -0.446312
-0.00173209  -0.0694545  -1.56978
0.37146  0.465796  -0.378724
0.459162  0.385283  -0.315984
-0.300159  0.417496  -0.784251
-0.219953  0.487466  -0.716663
-0.0970845  -0.168155  -1.40492
-0.412785  0.198787  -0.935044
-0.386359  -0.0192824  -1.08846
-0.255334  -0.156031  -1.24495
-0.122962  0.538733  -0.649075
-0.0141503  0.567408  -0.581488
-0.0299698  -0.131306  -1.48632
-0.389024  0.294674  -0.859349
0.100678  0.570973  -0.5139
-0.164735  -0.186668  -1.32447
-0.419726  0.0632635  -1.01139
-0.324328  -0.118046  -1.16629
0.215251  0.54845  -0.446312
0.00519196  -0.0692818  -1.56978
0.323236  0.500467  -0.378724
0.418519  0.429086  -0.315984
-0.340237  0.385535  -0.784251
-0.267396  0.463144  -0.716663
-0.0798592  -0.176986  -1.40492
-0.430526  0.156699  -0.935044
-0.382519  -0.0576554  -1.08846
-0.238529  -0.180679  -1.24495
-0.175992  0.523813  -0.649075
-0.0705755  0.563179  -0.581488
-0.016747  -0.133638  -1.48632
-0.416431  0.254476  -0.859349
0.0433271  0.57816  -0.5139
-0.145331  -0.202142  -1.32447
-0.423939  0.0211579  -1.01139
-0.310963  -0.149752  -1.16629
0.159573  0.567157  -0.446312
0.0120644  -0.0684206  -1.56978
0.271799  0.530164  -0.378724
0.373716  0.468625  -0.315984
-0.376933  0.349743  -0.784251
-0.312181  0.434218  -0.716663
-0.0618402  -0.184058  -1.40492
-0.443989  0.113053  -0.935044
-0.374877  -0.0954555  -1.08846
-0.219354  -0.203531  -1.24495
-0.227272  0.503687  -0.649075
-0.126299  0.553354  -0.581488
-0.00335774  -0.134641  -1.48632
-0.439699  0.211748  -0.859349
-0.0144543  0.579601  -0.5139
-0.124481  -0.215608  -1.32447
-0.423939  -0.0211579  -1.01139
-0.294507  -0.179969  -1.16629
0.10231  0.580227  -0.446312
0.0188169  -0.0668794  -1.56978
0.217661  0.554591  -0.378724
0.325199  0.503506  -0.315984
-0.409883  0.310474  -0.784251
-0.353864  0.400977  -0.716663
-0.0432067  -0.189301  -1.40492
-0.453039  0.0682847  -0.935044
-0.36351  -0.132307  -1.08846
-0.197999  -0.22436  -1.24495
-0.276294  0.478555  -0.649075
-0.180768  0.538029  -0.581488
0.0100649  -0.134306  -1.48632
-0.458598  0.166916  -0.859349
-0.0720921  0.575281  -0.5139
-0.102395  -0.226931  -1.32447
-0.419726  -0.0632635  -1.01139
-0.275124  -0.208399  -1.16629
0.0440293  0.58753  -0.446312
0.0253825  -0.0646735  -1.56978
0.16136  0.573508  -0.378724
0.27345  0.533384  -0.315984
-0.438759  0.26812  -0.784251
-0.39203  0.363751  -0.716663
-0.0241437  -0.192662  -1.40492
-0.457587  0.0228372  -0.935044
-0.34853  -0.167843  -1.08846
-0.174676  -0.242959  -1.24495
-0.32257  0.448667  -0.649075
-0.23344  0.517356  -0.581488
0.0233875  -0.132637  -1.48632
-0.472938  0.120425  -0.859349
-0.129013  0.565244  -0.5139
-0.0792914  -0.235999  -1.32447
-0.411341  -0.10474  -1.01139
-0.253007  -0.234757  -1.16629
-0.0146886  0.588995  -0.446312
0.0316957  -0.0618248  -1.56978
0.103455  0.586724  -0.378724
0.218983  0.55796  -0.315984
-0.463275  0.223102  -0.784251
-0.4263  0.32291  -0.716663
-0.00484077  -0.194109  -1.40492
-0.457587  -0.0228372  -0.935044
-0.330087  -0.201712  -1.08846
-0.149617  -0.259144  -1.24495
-0.36564  0.41432  -0.649075
-0.283792  0.491542  -0.581488
0.0364776  -0.129649  -1.48632
-0.482578  0.072737  -0.859349
-0.184652  0.54959  -0.5139
-0.0553995  -0.242721  -1.32447
-0.398868  -0.145176  -1.01139
-0.228376  -0.258781  -1.16629
-0.0732605  0.584605  -0.446312
0.037694  -0.0583617  -1.56978
0.0445223  0.594109  -0.378724
0.16234  0.576991  -0.315984
-0.483187  0.175866  -0.784251
-0.456333  0.278859  -0.716663
0.0145103  -0.193626  -1.40492
-0.453039  -0.0682847  -0.935044
-0.308362  -0.233575  -1.08846
-0.123071  -0.272754  -1.24495
-0.405076  0.375855  -0.649075
-0.331324  0.460843  -0.581488
0.0492053  -0.125373  -1.48632
-0.487423  0.0243263  -0.859349
-0.238456  0.528474  -0.5139
-0.030957  -0.247031  -1.32447
-0.382432  -0.184169  -1.01139
-0.201475  -0.280234  -1.16629
-0.131104  0.574406  -0.446312
0.0433177  -0.0543186  -1.56978
-0.0148531  0.59559  -0.378724
0.104084  0.590288  -0.315984
-0.498296  0.126882  -0.784251
-0.481831  0.232038  -0.716663
0.0337171  -0.191219  -1.40492
-0.443989  -0.113053  -0.935044
-0.283573  -0.263118  -1.08846
-0.095302  -0.283652  -1.24495
-0.440486  0.333655  -0.649075
-0.375562  0.425564  -0.581488
0.0614439  -0.119851  -1.48632
-0.487423  -0.0243263  -0.859349
-0.28989  0.502105  -0.5139
-0.00620682  -0.248886  -1.32447
-0.362194  -0.221332  -1.01139
-0.172571  -0.298902  -1.16629
-0.187645  0.558498  -0.446312
0.0485108  -0.0497357  -1.56978
-0.0740809  0.591152  -0.378724
0.0447928  0.597718  -0.315984
-0.508453  0.076637  -0.784251
-0.50254  0.18291  -0.716663
0.0525888  -0.186912  -1.40492
-0.430526  -0.156699  -0.935044
-0.255966  -0.290045  -1.08846
-0.0665858  -0.291732  -1.24495
-0.471518  0.288139  -0.649075
-0.416069  0.386055  -0.581488
0.0730718  -0.113137  -1.48632
-0.482578  -0.072737  -0.859349
-0.338443  0.470746  -0.5139
0.018605  -0.248267  -1.32447
-0.338356  -0.256295  -1.01139
-0.141953  -0.314599  -1.16629
-0.242321  0.537039  -0.446312
0.0532218  -0.0446584  -1.56978
-0.132572  0.580838  -0.378724
-0.0149433  0.599207  -0.315984
-0.513557  0.0256306  -0.784251
-0.518255  0.131964  -0.716663
0.0709379  -0.180747  -1.40492
-0.412785  -0.198787  -0.935044
-0.225815  -0.31409  -1.08846
-0.0372079  -0.296912  -1.24495
-0.497865  0.239759  -0.649075
-0.45244  0.34271  -0.581488
0.0839735  -0.105299  -1.48632
-0.472938  -0.120425  -0.859349
-0.383633  0.434709  -0.5139
0.043232  -0.245181  -1.32447
-0.311156  -0.288711  -1.01139
-0.109923  -0.32717  -1.16629
-0.294589  0.510243  -0.446312
0.0574039  -0.0391373  -1.56978
-0.189746  0.564752  -0.378724
-0.0745308  0.594742  -0.315984
-0.513557  -0.0256306  -0.784251
-0.528819  0.0797066  -0.716663
0.088582  -0.172786  -1.40492
-0.390941  -0.238899  -0.935044
-0.19342  -0.335013  -1.08846
-0.00746011  -0.299141  -1.24495
-0.519263  0.188996  -0.649075
-0.484314  0.295958  -0.581488
0.0940407  -0.0964152  -1.48632
-0.458598  -0.166916  -0.859349
-0.425009  0.394351  -0.5139
0.0674292  -0.239658  -1.32447
-0.280864  -0.318257  -1.01139
-0.0768014  -0.336489  -1.16629
-0.343929  0.478376  -0.446312
0.0610154  -0.0332272  -1.56978
-0.245035  0.543053  -0.378724
-0.133378  0.584366  -0.315984
-0.508453  -0.076637  -0.784251
-0.534127  0.0266572  -0.716663
0.105346  -0.163107  -1.40492
-0.365211  -0.276637  -0.935044
-0.159102  -0.352607  -1.08846
0.0223618  -0.298397  -1.24495
-0.5355  0.136355  -0.649075
-0.511376  0.246266  -0.581488
0.103173  -0.0865726  -1.48632
-0.439699  -0.211748  -0.859349
-0.462162  0.350074  -0.5139
0.0909564  -0.231753  -1.32447
-0.24778  -0.344641  -1.01139
-0.0429163  -0.342464  -1.16629
-0.389851  0.441754  -0.446312
0.0640206  -0.0269869  -1.56978
-0.297888  0.515956  -0.378724
-0.190899  0.568182  -0.315984
-0.498296  -0.126882  -0.784251
-0.534127  -0.0266572  -0.716663
0.121062  -0.151807  -1.40492
-0.335852  -0.311625  -0.935044
-0.123203  -0.366696  -1.08846
0.0519614  -0.294688  -1.24495
-0.546416  0.082359  -0.649075
-0.533355  0.194125  -0.581488
0.11128  -0.0758697  -1.48632
-0.416431  -0.254476  -0.859349
-0.494722  0.302318  -0.5139
0.11358  -0.221545  -1.32447
-0.212233  -0.367599  -1.01139
-0.00860464  -0.345035  -1.16629
-0.431898  0.400743  -0.446312
0.0663895  -0.0204784  -1.56978
-0.34778  0.483733  -0.378724
-0.246523  0.546351  -0.315984
-0.483187  -0.175866  -0.784251
-0.528819  -0.0797066  -0.716663
0.135576  -0.138999  -1.40492
-0.303156  -0.343517  -0.935044
-0.0860799  -0.377141  -1.08846
0.0810447  -0.28805  -1.24495
-0.551901  0.0275442  -0.649075
-0.550033  0.140056  -0.581488
0.118282  -0.0644127  -1.48632
-0.389024  -0.294674  -0.859349
-0.522364  0.251557  -0.5139
0.135074  -0.209135  -1.32447
-0.174578  -0.386904  -1.01139
0.0257925  -0.344177  -1.16629
-0.469653  0.355748  -0.446312
0.0680986  -0.0137664  -1.56978
-0.394216  0.446701  -0.378724
-0.299697  0.51909  -0.315984
-0.463275  -0.223102  -0.784251
-0.518255  -0.131964  -0.716663
0.148742  -0.124809  -1.40492
-0.267446  -0.371995  -0.935044
-0.0481011  -0.383837  -1.08846
0.109322  -0.278549  -1.24495
-0.551901  -0.0275442  -0.649075
-0.561245  0.084594  -0.581488
0.124107  -0.0523156  -1.48632
-0.357751  -0.331944  -0.859349
-0.544816  0.198297  -0.5139
0.155226  -0.194647  -1.32447
-0.135187  -0.402364  -1.01139
0.0599334  -0.339899  -1.16629
-0.50274  0.307218  -0.446312
0.0691309  -0.00691759  -1.56978
-0.436734  0.40523  -0.378724
-0.349892  0.486671  -0.315984
-0.438759  -0.26812  -0.784251
-0.50254  -0.18291  -0.716663
0.16043  -0.109379  -1.40492
-0.229078  -0.396775  -0.935044
-0.00964418  -0.386719  -1.08846
0.136514  -0.26628  -1.24495
-0.546416  -0.082359  -0.649075
-0.566879  0.0282917  -0.581488
0.1287  -0.0396985  -1.48632
-0.322922  -0.365915  -0.859349
-0.561852  0.143065  -0.5139
0.173835  -0.178224  -1.32447
-0.0944528  -0.413825  -1.01139
0.0934786  -0.332243  -1.16629
-0.530831  0.255635  -0.446312
-0.474912  0.359732  -0.378724
-0.39661  0.449414  -0.315984
-0.409883  -0.310474  -0.784251
-0.481831  -0.232038  -0.716663
0.170523  -0.0928621  -1.40492
-0.188434  -0.417612  -0.935044
0.0289086  -0.385758  -1.08846
0.162348  -0.251364  -1.24495
-0.5355  -0.136355  -0.649075
-0.566879  -0.0282917  -0.581488
0.132013  -0.0266869  -1.48632
-0.284884  -0.39625  -0.859349
-0.573305  0.0864118  -0.5139
0.190717  -0.16003  -1.32447
-0.0527798  -0.421173  -1.01139
0.126095  -0.321284  -1.16629
-0.553646  0.201511  -0.446312
-0.50837  0.310658  -0.378724
-0.439387  0.407691  -0.315984
-0.376933  -0.349743  -0.784251
-0.456333  -0.278859  -0.716663
0.178922  -0.075422  -1.40492
-0.145917  -0.434299  -0.935044
0.067174  -0.380963  -1.08846
0.186569  -0.233951  -1.24495
-0.519263  -0.188996  -0.649075
-0.561245  -0.084594  -0.581488
0.134014  -0.0134101  -1.48632
-0.244015  -0.422646  -0.859349
-0.57906  0.0288997  -0.5139
0.205703  -0.140246  -1.32447
-0.0105823  -0.424335  -1.01139
0.157458  -0.307133  -1.16629
-0.570959  0.145384  -0.446312
-0.536775  0.258497  -0.378724
-0.477796  0.361917  -0.315984
-0.340237  -0.385535  -0.784251
-0.4263  -0.32291  -0.716663
0.185543  -0.0572323  -1.40492
-0.101949  -0.446669  -0.935044
0.104772  -0.372381  -1.08846
0.208936  -0.214212  -1.24495
-0.497865  -0.239759  -0.649075
-0.550033  -0.140056  -0.581488
-0.20072  -0.444842  -0.859349
-0.57906  -0.0288997  -0.5139
0.218645  -0.119068  -1.32447
0.0317205  -0.42328  -1.01139
0.187256  -0.289929  -1.16629
-0.582597  0.0878124  -0.446312
-0.559846  0.203767  -0.378724
-0.511457  0.312545  -0.315984
-0.300159  -0.417496  -0.784251
-0.39203  -0.363751  -0.716663
0.190319  -0.0384738  -1.40492
-0.0569689  -0.454601  -0.935044
0.141328  -0.360099  -1.08846
0.229227  -0.192344  -1.24495
-0.471518  -0.288139  -0.649075
-0.533355  -0.194125  -0.581488
-0.155431  -0.462616  -0.859349