 VARIABLES = X Y Z
 ZONE N = 230, E = 225, DATAPACKING= POINT, ZONETYPE= FETRIANGLE
0  0  1
0  0.552533  1
0  0.866133  1
0  0.945  1
0  0.945729  1.00056
0  0.957863  1.0098
0  0.9835  1.02933
0  1.0115  1.05067
0  1.03714  1.0702
0  1.04927  1.07944
0  1.05  1.08
0  1.05  1.14009
0  1.05  1.37902
0  1.05  1.8
4.44657  0  0.0747352
4.44657  0.551552  0.0747352
4.44657  0.86495  0.0747352
4.44657  0.944376  0.0747371
4.44659  0.944939  0.0748112
4.44684  0.945866  0.0762195
4.45036  0.958015  0.0969148
4.45776  0.983557  0.140419
4.46583  1.01144  0.187913
4.47323  1.03699  0.231417
4.47675  1.04913  0.252112
4.47704  1.04996  0.253704
4.47725  1.05  0.2547
4.50032  1.05  0.390033
4.59115  1.05  0.923875
4.75095  1.05  1.86335
6.07948  0  0.0183075
6.07948  0.549363  0.0183075
6.07948  0.862313  0.0183075
6.07949  0.942985  0.0183138
6.07955  0.944804  0.0185573
6.08  0.946171  0.0204009
6.08504  0.958354  0.0420815
6.0955  0.983685  0.087153
6.10691  1.01132  0.136317
6.11737  1.03665  0.181388
6.12242  1.04883  0.203069
6.12302  1.04986  0.205515
6.12388  1.05  0.208788
6.15737  1.05  0.352384
6.28682  1.05  0.909287
6.51393  1.05  1.88685
7.98393  0  0.00392243
7.98393  0.54189  0.00392243
7.98393  0.852613  0.00392243
7.98394  0.936174  0.00393995
7.98416  0.94118  0.00462545
7.98508  0.943664  0.00748867
7.992  0.955891  0.0298139
8.00594  0.980595  0.0749059
8.0211  1.00748  0.123981
8.03504  1.03219  0.169073
8.04196  1.04441  0.191398
8.04344  1.04597  0.195958
8.04649  1.04635  0.205169
8.09396  1.04636  0.357802
8.26962  1.04636  0.92509
8.57571  1.04636  1.91434
9.87948  0  0.000710069
9.87948  0.51993  0.000710069
9.87948  0.82054  0.000710069
9.8795  0.905581  0.000742125
9.88  0.914307  0.00199586
9.88166  0.918075  0.00615409
9.8906  0.930063  0.0290408
9.90797  0.953421  0.0735942
9.9268  0.978769  0.121938
9.94417  1.00213  0.166492
9.95311  1.01411  0.189378
9.95602  1.01628  0.19664
9.9628  1.01693  0.213485
10.0265  1.01694  0.376001
10.2504  1.01694  0.949731
10.6375  1.01694  1.94183
11.3885  0  0.0160541
11.3972  0.45907  0.0172578
11.4236  0.719909  0.0208689
11.4668  0.786012  0.0269786
11.5023  0.787148  0.0389705
11.5192  0.789431  0.0591836
11.5383  0.799491  0.0967988
11.5656  0.818566  0.152895
11.5944  0.839218  0.212225
11.6217  0.858293  0.268321
11.6408  0.868353  0.305937
11.6541  0.870552  0.330705
11.6718  0.871271  0.365586
11.7482  0.87129  0.531073
11.989  0.87129  1.0622
12.3971  0.87129  1.9653
12.9688  0  0.142891
13.0478  0  0.153725
13.2848  0  0.186225
13.6736  0  0.240868
13.9873  0  0.335335
14.1202  0  0.47619
14.2082  0  0.628571
14.2962  0  0.780952
14.3842  0  0.933333
14.4721  0  1.08571
14.5601  0  1.2381
14.6459  0  1.38663
14.7227  0  1.51971
14.7988  0  1.65144
14.891  0  1.81127
15  0  2
1.47038  0  0.545344
2.70362  0  0.273038
3.75138  0  0.129705
4.66554  0  0.0620709
5.52122  0  0.0291167
6.43702  0  0.0137253
7.45629  0  0.00603323
8.51086  0  0.00248901
9.52496  0  0.000982621
10.4279  0  0.00100578
11.2086  0  0.0105406
11.893  0  0.0413881
12.4525  0  0.0857329
12.8302  0  0.12559
1.47038  0.944953  0.545344
2.70362  0.944811  0.273038
3.75138  0.944538  0.129705
4.66554  0.944101  0.0620709
5.52122  0.943335  0.0291167
6.43702  0.941808  0.0137253
7.45629  0.938209  0.00603323
8.51086  0.929987  0.00248901
9.52496  0.913035  0.000982621
10.4304  0.880738  0.00135843
11.2538  0.812271  0.0167387
12.0736  0.68018  0.066144
12.8273  0.48784  0.137121
13.3794  0.254615  0.200902
13.5937  0  0.228585
1.47038  0.945006  0.545355
2.70363  0.945026  0.273083
3.75141  0.945064  0.129818
4.66559  0.945125  0.0622921
5.52132  0.945231  0.0295299
6.43724  0.945413  0.0145193
7.45673  0.94447  0.00742795
8.51161  0.939418  0.00462304
9.5261  0.925606  0.00390164
10.434  0.895287  0.00581542
11.2917  0.819531  0.0350998
12.2192  0.660783  0.127137
13.1274  0.438541  0.258936
13.8183  0.20185  0.377246
14.0927  0  0.428571
0  0.97125  1.02
1.4726  0.971256  0.577241
2.70793  0.971276  0.312216
3.75766  0.971314  0.172909
4.67363  0.971375  0.107403
5.53106  0.971481  0.0757723
6.44883  0.971663  0.0614763
7.47041  0.970684  0.054945
8.52753  0.965481  0.0526101
9.54425  0.951275  0.0522941
10.4548  0.920081  0.0555218
11.3238  0.841821  0.101198
12.283  0.677457  0.244605
13.2356  0.447793  0.449966
13.9661  0.204623  0.634313
14.2577  0  0.714286
0  1.02375  1.06
1.47703  1.02374  0.640991
2.71653  1.02372  0.39039
3.77012  1.02369  0.258866
4.68961  1.02363  0.197182
5.55034  1.02352  0.16743
6.47156  1.02328  0.153802
7.49691  1.02159  0.14719
8.55788  1.01531  0.144316
9.57828  0.999546  0.143241
10.4926  0.966007  0.146491
11.3725  0.882629  0.204936
12.3599  0.70776  0.39056
13.3513  0.464532  0.656915
14.1162  0.209626  0.896173
14.4226  0  1
1.47924  1.04999  0.672877
2.72084  1.04997  0.429523
3.77638  1.04994  0.301957
4.69765  1.04988  0.242292
5.56008  1.04977  0.213673
6.48314  1.04953  0.200759
7.5106  1.0478  0.194707
8.5738  1.04137  0.192303
9.59643  1.02521  0.191633
10.5134  0.990801  0.196197
11.4046  0.904919  0.271034
12.4236  0.724434  0.508028
13.4595  0.473784  0.847946
14.264  0.212399  1.15324
14.5876  0  1.28571
1.47926  1.05  0.672967
2.72091  1.05  0.429897
3.77657  1.05  0.302881
4.69805  1.05  0.244106
5.5609  1.05  0.217062
6.48495  1.04997  0.20727
7.51417  1.04856  0.206144
8.57993  1.04252  0.209802
9.60573  1.02675  0.215569
10.5267  0.992633  0.227054
11.4298  0.906806  0.321582
12.4789  0.725957  0.608714
13.5559  0.474666  1.01763
14.3968  0.212671  1.38404
14.7361  0  1.54286
1.55905  1.05  1.82079
2.8759  1.05  1.83835
4.00154  1.05  1.85335
4.98717  1.05  1.8665
5.91078  1.05  1.87881
6.90047  1.04997  1.89201
8.0037  1.04856  1.90672
9.14773  1.04252  1.92197
10.251  1.02675  1.93668
11.2405  0.992633  1.94987
12.1621  0.906806  1.96216
13.1243  0.725957  1.97499
14.0419  0.474666  1.98723
14.7294  0.212671  1.99639
1  2  1
2  3  2
3  4  3
4  4  4
4  5  4
5  6  5
6  7  6
7  8  7
8  9  8
9  10  9
10  11  10
11  11  11
11  12  11
12  13  12
13  14  13
15  16  15
16  17  16
17  18  17
18  19  18
19  20  19
20  21  20
21  22  21
22  23  22
23  24  23
24  25  24
25  26  25
26  27  26
27  28  27
28  29  28
29  30  29
31  32  31
32  33  32
33  34  33
34  35  34
35  36  35
36  37  36
37  38  37
38  39  38
39  40  39
40  41  40
41  42  41
42  43  42
43  44  43
44  45  44
45  46  45
47  48  47
48  49  48
49  50  49
50  51  50
51  52  51
52  53  52
53  54  53
54  55  54
55  56  55
56  57  56
57  58  57
58  59  58
59  60  59
60  61  60
61  62  61
63  64  63
64  65  64
65  66  65
66  67  66
67  68  67
68  69  68
69  70  69
70  71  70
71  72  71
72  73  72
73  74  73
74  75  74
75  76  75
76  77  76
77  78  77
79  80  79
80  81  80
81  82  81
82  83  82
83  84  83
84  85  84
85  86  85
86  87  86
87  88  87
88  89  88
89  90  89
90  91  90
91  92  91
92  93  92
93  94  93
95  96  95
96  97  96
97  98  97
98  99  98
99  100  99
100  101  100
101  102  101
102  103  102
103  104  103
104  105  104
105  106  105
106  107  106
107  108  107
108  109  108
109  110  109
1  111  1
111  112  111
112  113  112
113  114  113
114  115  114
115  116  115
116  117  116
117  118  117
118  119  118
119  120  119
120  121  120
121  122  121
122  123  122
123  124  123
124  95  124
4  125  4
125  126  125
126  127  126
127  128  127
128  129  128
129  130  129
130  131  130
131  132  131
132  133  132
133  134  133
134  135  134
135  136  135
136  137  136
137  138  137
138  139  138
4  140  4
140  141  140
141  142  141
142  143  142
143  144  143
144  145  144
145  146  145
146  147  146
147  148  147
148  149  148
149  150  149
150  151  150
151  152  151
152  153  152
153  154  153
155  156  155
156  157  156
157  158  157
158  159  158
159  160  159
160  161  160
161  162  161
162  163  162
163  164  163
164  165  164
165  166  165
166  167  166
167  168  167
168  169  168
169  170  169
171  172  171
172  173  172
173  174  173
174  175  174
175  176  175
176  177  176
177  178  177
178  179  178
179  180  179
180  181  180
181  182  181
182  183  182
183  184  183
184  185  184
185  186  185
11  187  11
187  188  187
188  189  188
189  190  189
190  191  190
191  192  191
192  193  192
193  194  193
194  195  194
195  196  195
196  197  196
197  198  197
198  199  198
199  200  199
200  201  200
11  202  11
202  203  202
203  204  203
204  205  204
205  206  205
206  207  206
207  208  207
208  209  208
209  210  209
210  211  210
211  212  211
212  213  212
213  214  213
214  215  214
215  216  215
14  217  14
217  218  217
218  219  218
219  220  219
220  221  220
221  222  221
222  223  222
223  224  223
224  225  224
225  226  225
226  227  226
227  228  227
228  229  228
229  230  229
230  110  230
