 VARIABLES = X Y Z
 ZONE N = 7194, E = 14258, DATAPACKING= POINT, ZONETYPE= FETRIANGLE
6.12323e-17  -1.49976e-32  1
6.12323e-17  -1.49976e-32  1
6.12323e-17  -1.49976e-32  -1
0.0498459  -1.22087e-17  -0.998757
0.0995678  -2.43871e-17  -0.995031
0.149042  -3.65048e-17  -0.988831
0.198146  -4.85318e-17  -0.980172
0.246757  -6.04381e-17  -0.969077
0.294755  -7.21942e-17  -0.955573
0.34202  -8.37708e-17  -0.939693
0.388435  -9.51391e-17  -0.921476
0.433884  -1.06271e-16  -0.900969
0.478254  -1.17138e-16  -0.878222
0.521435  -1.27715e-16  -0.853291
0.56332  -1.37974e-16  -0.826239
0.603804  -1.47889e-16  -0.797133
0.642788  -1.57438e-16  -0.766044
0.680173  -1.66594e-16  -0.733052
0.715867  -1.75337e-16  -0.698237
0.749781  -1.83643e-16  -0.661686
0.781831  -1.91493e-16  -0.62349
0.811938  -1.98867e-16  -0.583744
0.840026  -2.05747e-16  -0.542546
0.866025  -2.12115e-16  -0.5
0.889872  -2.17956e-16  -0.456211
0.911506  -2.23255e-16  -0.411287
0.930874  -2.27998e-16  -0.365341
0.947927  -2.32175e-16  -0.318487
0.962624  -2.35775e-16  -0.27084
0.974928  -2.38788e-16  -0.222521
0.984808  -2.41208e-16  -0.173648
0.992239  -2.43029e-16  -0.124344
0.997204  -2.44244e-16  -0.0747301
0.999689  -2.44853e-16  -0.0249307
0.999689  -2.44853e-16  0.0249307
0.997204  -2.44244e-16  0.0747301
0.992239  -2.43029e-16  0.124344
0.984808  -2.41208e-16  0.173648
0.974928  -2.38788e-16  0.222521
0.962624  -2.35775e-16  0.27084
0.947927  -2.32175e-16  0.318487
0.930874  -2.27998e-16  0.365341
0.911506  -2.23255e-16  0.411287
0.889872  -2.17956e-16  0.456211
0.866025  -2.12115e-16  0.5
0.840026  -2.05747e-16  0.542546
0.811938  -1.98867e-16  0.583744
0.781831  -1.91493e-16  0.62349
0.749781  -1.83643e-16  0.661686
0.715867  -1.75337e-16  0.698237
0.680173  -1.66594e-16  0.733052
0.642788  -1.57438e-16  0.766044
0.603804  -1.47889e-16  0.797133
0.56332  -1.37974e-16  0.826239
0.521435  -1.27715e-16  0.853291
0.478254  -1.17138e-16  0.878222
0.433884  -1.06271e-16  0.900969
0.388435  -9.51391e-17  0.921476
0.34202  -8.37708e-17  0.939693
0.294755  -7.21942e-17  0.955573
0.246757  -6.04381e-17  0.969077
0.198146  -4.85318e-17  0.980172
0.149042  -3.65048e-17  0.988831
0.0995678  -2.43871e-17  0.995031
0.0498459  -1.22087e-17  0.998757
6.12323e-17  -1.49976e-32  -1
0.0498459  -1.22087e-17  -0.998757
0.0995678  -2.43871e-17  -0.995031
0.149042  -3.65048e-17  -0.988831
0.198146  -4.85318e-17  -0.980172
0.246757  -6.04381e-17  -0.969077
0.294755  -7.21942e-17  -0.955573
0.34202  -8.37708e-17  -0.939693
0.388435  -9.51391e-17  -0.921476
0.433884  -1.06271e-16  -0.900969
0.478254  -1.17138e-16  -0.878222
0.521435  -1.27715e-16  -0.853291
0.56332  -1.37974e-16  -0.826239
0.603804  -1.47889e-16  -0.797133
0.642788  -1.57438e-16  -0.766044
0.680173  -1.66594e-16  -0.733052
0.715867  -1.75337e-16  -0.698237
0.749781  -1.83643e-16  -0.661686
0.781831  -1.91493e-16  -0.62349
0.811938  -1.98867e-16  -0.583744
0.840026  -2.05747e-16  -0.542546
0.866025  -2.12115e-16  -0.5
0.889872  -2.17956e-16  -0.456211
0.911506  -2.23255e-16  -0.411287
0.930874  -2.27998e-16  -0.365341
0.947927  -2.32175e-16  -0.318487
0.962624  -2.35775e-16  -0.27084
0.974928  -2.38788e-16  -0.222521
0.984808  -2.41208e-16  -0.173648
0.992239  -2.43029e-16  -0.124344
0.997204  -2.44244e-16  -0.0747301
0.999689  -2.44853e-16  -0.0249307
0.999689  -2.44853e-16  0.0249307
0.997204  -2.44244e-16  0.0747301
0.992239  -2.43029e-16  0.124344
0.984808  -2.41208e-16  0.173648
0.974928  -2.38788e-16  0.222521
0.962624  -2.35775e-16  0.27084
0.947927  -2.32175e-16  0.318487
0.930874  -2.27998e-16  0.365341
0.911506  -2.23255e-16  0.411287
0.889872  -2.17956e-16  0.456211
0.866025  -2.12115e-16  0.5
0.840026  -2.05747e-16  0.542546
0.811938  -1.98867e-16  0.583744
0.781831  -1.91493e-16  0.62349
0.749781  -1.83643e-16  0.661686
0.715867  -1.75337e-16  0.698237
0.680173  -1.66594e-16  0.733052
0.642788  -1.57438e-16  0.766044
0.603804  -1.47889e-16  0.797133
0.56332  -1.37974e-16  0.826239
0.521435  -1.27715e-16  0.853291
0.478254  -1.17138e-16  0.878222
0.433884  -1.06271e-16  0.900969
0.388435  -9.51391e-17  0.921476
0.34202  -8.37708e-17  0.939693
0.294755  -7.21942e-17  0.955573
0.246757  -6.04381e-17  0.969077
0.198146  -4.85318e-17  0.980172
0.149042  -3.65048e-17  0.988831
0.0995678  -2.43871e-17  0.995031
0.0498459  -1.22087e-17  0.998757
0.0615311  0.00191454  -0.998103
0.0612931  0.0057362  -0.998103
0.0608179  0.00953567  -0.998103
0.0601074  0.0132983  -0.998103
0.122651  0.00763992  -0.992421
0.0591644  0.0170094  -0.998103
0.121938  0.0152503  -0.992421
0.0579925  0.0206547  -0.998103
0.120754  0.0228016  -0.992421
0.183661  0.00571458  -0.982973
0.0565962  0.0242201  -0.998103
0.119103  0.0302648  -0.992421
0.18295  0.0171216  -0.982973
0.054981  0.0276918  -0.998103
0.116991  0.0376109  -0.992421
0.181532  0.0284625  -0.982973
0.053153  0.0310564  -0.998103
0.114427  0.0448114  -0.992421
0.179411  0.0396932  -0.982973
0.0511194  0.0343009  -0.998103
0.243442  0.015164  -0.969797
0.111419  0.0518386  -0.992421
0.176596  0.0507703  -0.982973
0.0488881  0.0374126  -0.998103
0.242028  0.0302694  -0.969797
0.107981  0.0586652  -0.992421
0.173098  0.061651  -0.982973
0.0464676  0.0403796  -0.998103
0.239678  0.0452576  -0.969797
0.104125  0.0652649  -0.992421
0.303006  0.00942801  -0.952942
0.168931  0.0722932  -0.982973
0.0438673  0.0431903  -0.998103
0.236401  0.0600708  -0.969797
0.0998661  0.071612  -0.992421
0.301834  0.0282475  -0.952942
0.164109  0.0826557  -0.982973
0.0410973  0.045834  -0.998103
0.232209  0.0746516  -0.969797
0.0952209  0.0776822  -0.992421
0.299494  0.0469578  -0.952942
0.158653  0.0926985  -0.982973
0.0381683  0.0483003  -0.998103
0.227119  0.0889435  -0.969797
0.0902072  0.0834517  -0.992421
0.295995  0.0654864  -0.952942
0.152583  0.102383  -0.982973
0.0350917  0.0505798  -0.998103
0.360543  0.0224583  -0.932472
0.22115  0.102891  -0.969797
0.0848445  0.0888985  -0.992421
0.291351  0.0837616  -0.952942
0.145923  0.111671  -0.982973
0.0318793  0.0526636  -0.998103
0.358449  0.0448296  -0.932472
0.214325  0.116441  -0.969797
0.0791536  0.0940013  -0.992421
0.28558  0.101713  -0.952942
0.138698  0.120527  -0.982973
0.0285435  0.0545437  -0.998103
0.354969  0.0670276  -0.932472
0.206672  0.12954  -0.969797
0.0731565  0.0987404  -0.992421
0.417758  0.0129985  -0.908465
0.278704  0.11927  -0.952942
0.130937  0.128916  -0.982973
0.0250974  0.0562127  -0.998103
0.350115  0.0889662  -0.932472
0.198218  0.142139  -0.969797
0.0668763  0.103097  -0.992421
0.416142  0.0389452  -0.908465
0.27075  0.136367  -0.952942
0.122669  0.136807  -0.982973
0.0215541  0.0576643  -0.998103
0.343907  0.110561  -0.932472
0.188998  0.154187  -0.969797
0.0603374  0.107056  -0.992421
0.412916  0.0647413  -0.908465
0.261749  0.152935  -0.952942
0.113926  0.144169  -0.982973
0.0179274  0.0588927  -0.998103
0.336368  0.131727  -0.932472
0.179047  0.165638  -0.969797
0.0535651  0.1106  -0.992421
0.408092  0.0902869  -0.908465
0.251734  0.168912  -0.952942
0.104743  0.150973  -0.982973
0.0142314  0.0598933  -0.998103
0.472178  0.0294121  -0.881012
0.327528  0.152384  -0.932472
0.168403  0.176449  -0.969797
0.0465855  0.113716  -0.992421
0.40169  0.115483  -0.908465
0.240746  0.184236  -0.952942
0.0951546  0.157193  -0.982973
0.0104803  0.0606622  -0.998103
0.469436  0.0587103  -0.881012
0.317421  0.172452  -0.932472
0.157107  0.186578  -0.969797
0.0394257  0.116392  -0.992421
0.393733  0.140233  -0.908465
0.228827  0.198847  -0.952942
0.085198  0.162804  -0.982973
0.00668872  0.0611965  -0.998103
0.464878  0.0877814  -0.881012
0.306085  0.191852  -0.932472
0.145204  0.195984  -0.969797
0.0321134  0.118618  -0.992421
0.526178  0.016372  -0.850217
0.384253  0.16444  -0.908465
0.216022  0.212688  -0.952942
0.0749117  0.167786  -0.982973
0.00287122  0.0614939  -0.998103
0.458522  0.116513  -0.881012
0.293566  0.21051  -0.932472
0.132739  0.204632  -0.969797
0.0246768  0.120385  -0.992421
0.524142  0.0490526  -0.850217
0.373287  0.18801  -0.908465
0.202381  0.225706  -0.952942
0.0643356  0.172119  -0.982973
-0.000957384  0.0615535  -0.998103
0.450391  0.144794  -0.881012
0.279911  0.228354  -0.932472
0.11976  0.212489  -0.969797
0.0171448  0.121686  -0.992421
0.520078  0.0815434  -0.850217
0.360876  0.210854  -0.908465
0.187958  0.237852  -0.952942
0.0535106  0.175785  -0.982973
-0.00478229  0.0613749  -0.998103
0.440518  0.172514  -0.881012
0.265173  0.245314  -0.932472
0.106318  0.219523  -0.969797
0.00954644  0.122517  -0.992421
0.514003  0.113719  -0.850217
0.347069  0.232881  -0.908465
0.172807  0.249077  -0.952942
0.0424785  0.178772  -0.982973
-0.00858869  0.0609588  -0.998103
0.576656  0.03592  -0.816197
0.428941  0.199567  -0.881012
0.249408  0.261325  -0.932472
0.0924649  0.225708  -0.969797
0.00191114  0.122873  -0.992421
0.505939  0.145454  -0.850217
0.33192  0.254008  -0.908465
0.156987  0.259339  -0.952942
0.0312822  0.181067  -0.982973
-0.0123619  0.060307  -0.998103
0.573308  0.071701  -0.816197
0.415704  0.225848  -0.881012
0.23268  0.276326  -0.932472
0.0782538  0.23102  -0.969797
-0.00573156  0.122755  -0.992421
0.495917  0.176627  -0.850217
0.315486  0.274152  -0.908465
0.140561  0.268597  -0.952942
0.0199648  0.182662  -0.982973
-0.0160872  0.0594218  -0.998103
0.567741  0.107205  -0.816197
0.400859  0.251256  -0.881012
0.21505  0.290257  -0.932472
0.06374  0.235438  -0.969797
-0.0133521  0.122161  -0.992421
0.626621  0.0194972  -0.779081
0.483977  0.207116  -0.850217
0.297832  0.293235  -0.908465
0.12359  0.276816  -0.952942
0.00857015  0.18355  -0.982973
-0.0197503  0.0583067  -0.998103
0.559978  0.142294  -0.816197
0.384463  0.275691  -0.881012
0.196589  0.303065  -0.932472
0.0489796  0.238945  -0.969797
-0.0209209  0.121094  -0.992421
0.624196  0.0584163  -0.779081
0.470164  0.236804  -0.850217
0.279025  0.311184  -0.908465
0.106142  0.283964  -0.952942
-0.00285764  0.183727  -0.982973
-0.023337  0.056966  -0.998103
0.550048  0.176832  -0.816197
0.36658  0.29906  -0.881012
0.177368  0.3147  -0.932472
0.0340297  0.241528  -0.969797
-0.0284089  0.119559  -0.992421
0.619357  0.0971094  -0.779081
0.454533  0.265576  -0.850217
0.259139  0.327929  -0.908465
0.0882825  0.290013  -0.952942
-0.0142744  0.183194  -0.982973
-0.0268334  0.055405  -0.998103
0.537991  0.210686  -0.816197
0.347278  0.321271  -0.881012
0.15746  0.325118  -0.932472
0.0189482  0.243177  -0.969797
-0.0357869  0.117562  -0.992421
0.612122  0.135427  -0.779081
0.437143  0.29332  -0.850217
0.238251  0.343406  -0.908465
0.0700817  0.294941  -0.952942
-0.0256359  0.181952  -0.982973
-0.030226  0.0536296  -0.998103
0.672392  0.0418834  -0.739009
0.523852  0.243725  -0.816197
0.326633  0.34224  -0.881012
0.136943  0.334279  -0.932472
0.0037933  0.243884  -0.969797
-0.0430264  0.11511  -0.992421
0.602518  0.17322  -0.779081
0.418062  0.31993  -0.850217
0.216441  0.357553  -0.908465
0.0516098  0.298727  -0.952942
-0.0368982  0.180007  -0.982973
-0.0335017  0.0516467  -0.998103
0.668488  0.0836048  -0.739009
0.507686  0.275821  -0.816197
0.304724  0.361885  -0.881012
0.115896  0.342146  -0.932472
-0.0113762  0.243648  -0.969797
-0.0500995  0.112212  -0.992421
0.590584  0.210343  -0.779081
0.397363  0.345302  -0.850217
0.193793  0.370318  -0.908465
0.0329382  0.301358  -0.952942
-0.0480178  0.177365  -0.982973
-0.0366478  0.049464  -0.998103
0.661997  0.125003  -0.739009
0.489556  0.306851  -0.816197
0.281637  0.380129  -0.881012
0.0944004  0.348689  -0.932472
-0.0265018  0.24247  -0.969797
-0.0569788  0.10888  -0.992421
0.717565  0.022327  -0.696134
0.576364  0.246653  -0.779081
0.375127  0.369338  -0.850217
0.170396  0.381649  -0.908465
0.0141392  0.302823  -0.952942
-0.0589516  0.174036  -0.982973
-0.039652  0.0470899  -0.998103
0.652945  0.165917  -0.739009
0.469532  0.336693  -0.816197
0.257459  0.396903  -0.881012
0.0725399  0.353883  -0.932472
-0.0415247  0.240353  -0.969797
-0.0636377  0.105127  -0.992421
0.714789  0.0668945  -0.696134
0.559915  0.282008  -0.779081
0.35144  0.391945  -0.850217
0.146339  0.391504  -0.908465
-0.00471457  0.303116  -0.952942
-0.0696573  0.170035  -0.982973
-0.0425029  0.0445337  -0.998103
0.641367  0.206189  -0.739009
0.447692  0.365232  -0.816197
0.232286  0.412142  -0.881012
0.0503988  0.357709  -0.932472
-0.0563871  0.237307  -0.969797
-0.0700503  0.100968  -0.992421
0.709247  0.111203  -0.696134
0.5413  0.316272  -0.779081
0.326393  0.413036  -0.850217
0.121716  0.399845  -0.908465
-0.0235501  0.302237  -0.952942
-0.0800936  0.165375  -0.982973
-0.0451893  0.0418052  -0.998103
0.627308  0.245664  -0.739009
0.42412  0.392358  -0.816197
0.206214  0.425785  -0.881012
0.0280626  0.36015  -0.932472
-0.0710313  0.233342  -0.969797
-0.0761919  0.0964174  -0.992421
0.700962  0.155082  -0.696134
0.52059  0.349313  -0.779081
0.300083  0.432528  -0.850217
0.0966225  0.406639  -0.908465
-0.0422944  0.300188  -0.952942
-0.0902199  0.160076  -0.982973
-0.0477009  0.0389149  -0.998103
0.757936  0.0472119  -0.650618
0.610821  0.284188  -0.739009
0.398907  0.417967  -0.816197
0.179344  0.437782  -0.881012
0.00561796  0.361198  -0.932472
-0.0854006  0.228475  -0.969797
-0.0820388  0.0914941  -0.992421
0.689964  0.19836  -0.696134
0.497866  0.381002  -0.779081
0.272613  0.450348  -0.850217
0.0711551  0.411859  -0.908465
-0.0608752  0.296978  -0.952942
-0.0999973  0.154157  -0.982973
-0.050028  0.0358741  -0.998103
0.753535  0.0942412  -0.650618
0.591972  0.321613  -0.739009
0.37215  0.441958  -0.816197
0.151781  0.448085  -0.881012
-0.0168485  0.360849  -0.932472
-0.0994396  0.222723  -0.969797
-0.0875682  0.0862168  -0.992421
0.676298  0.240871  -0.696134
0.473216  0.411217  -0.779081
0.244087  0.466425  -0.850217
0.0454123  0.415486  -0.908465
-0.0792204  0.292619  -0.952942
-0.109388  0.147642  -0.982973
-0.0521615  0.0326945  -0.998103
0.746218  0.140906  -0.650618
0.570832  0.357794  -0.739009
0.343954  0.46424  -0.816197
0.12363  0.456654  -0.881012
-0.0392497  0.359103  -0.932472
-0.113094  0.21611  -0.969797
-0.0927589  0.0806059  -0.992421
0.797631  0.0248182  -0.602635
0.660015  0.282451  -0.696134
0.446736  0.439841  -0.779081
0.214618  0.480697  -0.850217
0.0194938  0.417505  -0.908465
-0.0972592  0.287127  -0.952942
-0.118355  0.140556  -0.982973
-0.0540932  0.0293883  -0.998103
0.736014  0.187025  -0.650618
0.547484  0.39259  -0.739009
0.314427  0.484725  -0.816197
0.0950005  0.463457  -0.881012
-0.0614991  0.355968  -0.932472
-0.126311  0.208661  -0.969797
-0.0975907  0.0746832  -0.992421
0.794545  0.0743587  -0.602635
0.641178  0.322937  -0.696134
0.418527  0.466764  -0.779081
0.184318  0.49311  -0.850217
-0.00650004  0.41791  -0.908465
-0.114922  0.280525  -0.952942
-0.126864  0.132926  -0.982973
-0.0558156  0.0259685  -0.998103
0.722963  0.232421  -0.650618
0.522018  0.425868  -0.739009
0.283684  0.503335  -0.816197
0.0660038  0.468467  -0.881012
-0.0835105  0.351456  -0.932472
-0.139039  0.200405  -0.969797
-0.102045  0.0684716  -0.992421
0.788386  0.123611  -0.602635
0.619861  0.362174  -0.696134
0.388699  0.491881  -0.779081
0.153305  0.503615  -0.850217
-0.0324688  0.416697  -0.908465
-0.13214  0.272838  -0.952942
-0.134883  0.124782  -0.982973
-0.0573221  0.0224483  -0.998103
0.707115  0.276918  -0.650618
0.494532  0.457497  -0.739009
0.251843  0.519998  -0.816197
0.0367517  0.471664  -0.881012
-0.105199  0.345585  -0.932472
-0.151229  0.191373  -0.969797
-0.106104  0.061995  -0.992421
0.779176  0.172386  -0.602635
0.596145  0.40001  -0.696134
0.357367  0.515095  -0.779081
0.121699  0.512172  -0.850217
-0.0583119  0.413873  -0.908465
-0.148846  0.264095  -0.952942
-0.14238  0.116155  -0.982973
-0.0586068  0.0188412  -0.998103
0.83199  0.0518248  -0.552365
0.688532  0.320344  -0.650618
0.465133  0.487357  -0.739009
0.219027  0.534649  -0.816197
0.00735746  0.473036  -0.881012
-0.12648  0.338376  -0.932472
-0.162834  0.181601  -0.969797
-0.109753  0.0552786  -0.992421
0.766951  0.220494  -0.602635
0.570124  0.436299  -0.696134
0.324652  0.536316  -0.779081
0.0896217  0.518747  -0.850217
-0.0839294  0.409447  -0.908465
-0.164977  0.254331  -0.952942
-0.149325  0.107078  -0.982973
-0.0596648  0.0151612  -0.998103
0.827159  0.103449  -0.552365
0.667284  0.36253  -0.650618
0.433934  0.515332  -0.739009
0.185365  0.547232  -0.816197
-0.0220653  0.472579  -0.881012
-0.147272  0.329858  -0.932472
-0.173809  0.171127  -0.969797
-0.112978  0.0483484  -0.992421
0.75176  0.267748  -0.602635
0.541896  0.470899  -0.696134
0.290682  0.555462  -0.779081
0.057198  0.523316  -0.850217
-0.109222  0.403437  -0.908465
-0.180469  0.243582  -0.952942
-0.155694  0.0975877  -0.982973
-0.0604919  0.0114225  -0.998103
0.819127  0.154673  -0.552365
0.643455  0.403313  -0.650618
0.401057  0.541312  -0.739009
0.150985  0.557697  -0.816197
-0.0514026  0.470293  -0.881012
-0.167495  0.320064  -0.932472
-0.184112  0.15999  -0.969797
-0.115765  0.0412311  -0.992421
0.865606  0.0269333  -0.5
0.73366  0.313967  -0.602635
0.511573  0.503678  -0.696134
0.255587  0.572459  -0.779081
0.024553  0.525859  -0.850217
-0.134092  0.395866  -0.908465
-0.195264  0.231891  -0.952942
-0.161459  0.0877195  -0.982973
-0.061085  0.00763963  -0.998103
0.807927  0.205299  -0.552365
0.617136  0.442536  -0.650618
0.366628  0.565199  -0.739009
0.116021  0.566005  -0.816197
-0.0805411  0.466187  -0.881012
-0.187069  0.309032  -0.932472
-0.193702  0.148234  -0.969797
-0.118104  0.0339542  -0.992421
0.862258  0.0806956  -0.5
0.712721  0.358971  -0.602635
0.479269  0.534508  -0.696134
0.219503  0.587241  -0.779081
-0.00818697  0.526368  -0.850217
-0.158444  0.386764  -0.908465
-0.209303  0.219303  -0.952942
-0.166601  0.077512  -0.982973
-0.0614418  0.00382722  -0.998103
0.7936  0.25513  -0.552365
0.58843  0.480048  -0.650618
0.330781  0.586899  -0.739009
0.0806083  0.572123  -0.816197
-0.109368  0.460278  -0.881012
-0.205919  0.296804  -0.932472
-0.202543  0.135905  -0.969797
-0.119987  0.0265461  -0.992421
0.855573  0.134146  -0.5
0.689025  0.402586  -0.602635
0.445112  0.56327  -0.696134
0.182569  0.599751  -0.779081
-0.0408953  0.524841  -0.850217
-0.182182  0.376165  -0.908465
-0.222532  0.205867  -0.952942
-0.171097  0.0670045  -0.982973
-0.0615609  6.22161e-17  -0.998103
0.776204  0.303974  -0.552365
0.557448  0.515701  -0.650618
0.293653  0.606328  -0.739009
0.0448837  0.576028  -0.816197
-0.137772  0.452589  -0.881012
-0.223973  0.283428  -0.932472
-0.2106  0.12305  -0.969797
-0.121405  0.0190352  -0.992421
0.845578  0.187077  -0.5
0.662664  0.444644  -0.602635
0.409233  0.589852  -0.696134
0.14493  0.609942  -0.779081
-0.0734454  0.521284  -0.850217
-0.205216  0.364112  -0.908465
-0.2349  0.191634  -0.952942
-0.174932  0.0562379  -0.982973
-0.0614418  -0.00382722  -0.998103
0.893432  0.055652  -0.445738
0.755804  0.351643  -0.552365
0.524308  0.54936  -0.650618
0.25539  0.623411  -0.739009
0.00898543  0.577704  -0.816197
-0.165643  0.443148  -0.881012
-0.241161  0.268956  -0.932472
-0.217843  0.109719  -0.969797
-0.122354  0.0114506  -0.992421
0.832312  0.239284  -0.5
0.633739  0.484981  -0.602635
0.37177  0.614153  -0.696134
0.10673  0.617772  -0.779081
-0.105711  0.515709  -0.850217
-0.227456  0.350649  -0.908465
-0.246359  0.17666  -0.952942
-0.17809  0.0452536  -0.982973
-0.061085  -0.00763963  -0.998103
0.888244  0.111089  -0.445738
0.732481  0.397951  -0.552365
0.489141  0.580894  -0.650618
0.216139  0.638083  -0.739009
-0.0269476  0.577145  -0.816197
-0.192872  0.431993  -0.881012
-0.257415  0.253442  -0.932472
-0.224243  0.0959639  -0.969797
-0.122829  0.00382181  -0.992421
0.815826  0.290566  -0.5
0.602362  0.523442  -0.602635
0.33287  0.636078  -0.696134
0.0681166  0.623212  -0.779081
-0.137568  0.50814  -0.850217
-0.248815  0.33583  -0.908465
-0.256866  0.161002  -0.952942
-0.180559  0.0340943  -0.982973
-0.0604919  -0.0114225  -0.998103
0.879619  0.166096  -0.445738
0.706324  0.442719  -0.552365
0.45208  0.61018  -0.650618
0.176051  0.650286  -0.739009
-0.0627764  0.574353  -0.816197
-0.219356  0.419166  -0.881012
-0.272673  0.236949  -0.932472
-0.229775  0.0818371  -0.969797
-0.122829  -0.00382181  -0.992421
0.92046  0.02864  -0.389786
0.796183  0.340723  -0.5
0.568654  0.559878  -0.602635
0.292681  0.655542  -0.696134
0.02924  0.626242  -0.779081
-0.168893  0.498604  -0.850217
-0.269213  0.319711  -0.908465
-0.266378  0.144721  -0.952942
-0.182329  0.0228031  -0.982973
-0.0596648  -0.0151612  -0.998103
0.867591  0.22046  -0.445738
0.677434  0.485774  -0.552365
0.413271  0.637105  -0.650618
0.135283  0.659973  -0.739009
-0.0983623  0.569339  -0.816197
-0.244991  0.404718  -0.881012
-0.286877  0.219538  -0.932472
-0.234418  0.0673938  -0.969797
-0.122354  -0.0114506  -0.992421
0.916899  0.0858093  -0.389786
0.77346  0.389563  -0.5
0.532747  0.594148  -0.602635
0.25136  0.67247  -0.696134
-0.0097498  0.626848  -0.779081
-0.199564  0.48714  -0.850217
-0.288568  0.302356  -0.908465
-0.27486  0.12788  -0.952942
-0.183394  0.0114236  -0.982973
-0.0586068  -0.0188412  -0.998103
0.852207  0.273971  -0.445738
0.645923  0.52695  -0.552365
0.372863  0.661565  -0.650618
0.0939909  0.667107  -0.739009
-0.133568  0.562123  -0.816197
-0.269679  0.388704  -0.881012
-0.299971  0.201279  -0.932472
-0.238155  0.0526897  -0.969797
-0.121405  -0.0190352  -0.992421
0.909791  0.142647  -0.389786
0.747745  0.436895  -0.5
0.494778  0.62612  -0.602635
0.209067  0.686796  -0.696134
-0.0487019  0.625029  -0.779081
-0.229464  0.47379  -0.850217
-0.306807  0.283831  -0.908465
-0.282279  0.110545  -0.952942
-0.18375  1.85705e-16  -0.982973
-0.0573221  -0.0224483  -0.998103
0.833526  0.326423  -0.445738
0.611913  0.566088  -0.552365
0.331013  0.683466  -0.650618
0.0523353  0.67166  -0.739009
-0.168256  0.552732  -0.816197
-0.293323  0.371186  -0.881012
-0.311904  0.18224  -0.932472
-0.24097  0.0377818  -0.969797
-0.119987  -0.0265461  -0.992421
0.899162  0.198932  -0.389786
0.719137  0.482537  -0.5
0.454896  0.655669  -0.602635
0.165964  0.698465  -0.696134
-0.0874655  0.620792  -0.779081
-0.258475  0.458608  -0.850217
-0.32386  0.264208  -0.908465
-0.288605  0.0927821  -0.952942
-0.183394  -0.0114236  -0.982973
-0.0558156  -0.0259685  -0.998103
0.94133  0.0586356  -0.332355
0.81162  0.377611  -0.445738
0.575536  0.603035  -0.552365
0.287882  0.702723  -0.650618
0.0104772  0.673614  -0.739009
-0.202294  0.541202  -0.816197
-0.315832  0.352233  -0.881012
-0.32263  0.162497  -0.932472
-0.242853  0.0227277  -0.969797
-0.118104  -0.0339542  -0.992421
0.885056  0.254448  -0.389786
0.687747  0.526312  -0.5
0.413253  0.682681  -0.602635
0.12222  0.707432  -0.696134
-0.125891  0.614154  -0.779081
-0.286487  0.441652  -0.850217
-0.339659  0.243563  -0.908465
-0.293815  0.0746601  -0.952942
-0.182329  -0.0228031  -0.982973
-0.0540932  -0.0293883  -0.998103
0.935864  0.117044  -0.332355
0.786574  0.427339  -0.445738
0.536932  0.63765  -0.552365
0.243637  0.719261  -0.650618
-0.0314214  0.672962  -0.739009
-0.235549  0.527579  -0.816197
-0.337119  0.331916  -0.881012
-0.332109  0.142125  -0.932472
-0.243796  0.00758568  -0.969797
-0.115765  -0.0412311  -0.992421
0.867525  0.308979  -0.389786
0.653696  0.568051  -0.5
0.370011  0.707052  -0.602635
0.0780027  0.713662  -0.696134
-0.163829  0.605139  -0.779081
-0.31339  0.422987  -0.850217
-0.354144  0.221975  -0.908465
-0.297889  0.0562493  -0.952942
-0.180559  -0.0340943  -0.982973
-0.0521615  -0.0326945  -0.998103
0.926777  0.175  -0.332355
0.758485  0.475413  -0.445738
0.496251  0.669797  -0.552365
0.198449  0.733017  -0.650618
-0.0731985  0.669707  -0.739009
-0.267893  0.511914  -0.816197
-0.357102  0.310316  -0.881012
-0.340302  0.121203  -0.932472
-0.243796  -0.00758568  -0.969797
-0.112978  -0.0483484  -0.992421
0.96136  0.0299126  -0.273663
0.846637  0.362315  -0.389786
0.617116  0.607592  -0.5
0.325339  0.728688  -0.602635
0.0334837  0.717131  -0.696134
-0.201133  0.593784  -0.779081
-0.33908  0.402685  -0.850217
-0.367259  0.199529  -0.908465
-0.300809  0.0376209  -0.952942
-0.17809  -0.0452536  -0.982973
-0.050028  -0.0358741  -0.998103
0.914104  0.232279  -0.332355
0.727462  0.521648  -0.445738
0.45365  0.699353  -0.552365
0.152494  0.743936  -0.650618
-0.114692  0.663861  -0.739009
-0.2992  0.494269  -0.816197
-0.375703  0.287514  -0.881012
-0.347179  0.0998117  -0.932472
-0.242853  -0.0227277  -0.969797
-0.109753  -0.0552786  -0.992421
0.957641  0.0896222  -0.273663
0.822475  0.414249  -0.389786
0.578148  0.644783  -0.5
0.279407  0.747505  -0.602635
-0.0111648  0.717825  -0.696134
-0.23766  0.580131  -0.779081
-0.363459  0.380826  -0.850217
-0.378953  0.17631  -0.908465
-0.302566  0.0188469  -0.952942
-0.174932  -0.0562379  -0.982973
-0.0477009  -0.0389149  -0.998103
0.897895  0.288659  -0.332355
0.693624  0.565865  -0.445738
0.409294  0.726203  -0.552365
0.105949  0.751978  -0.650618
-0.155742  0.655446  -0.739009
-0.32935  0.474712  -0.816197
-0.392851  0.263601  -0.881012
-0.352713  0.0780346  -0.932472
-0.24097  -0.0377818  -0.969797
-0.106104  -0.061995  -0.992421
0.950217  0.148985  -0.273663
0.79513  0.464581  -0.389786
0.536944  0.679479  -0.5
0.232394  0.763429  -0.602635
-0.0557702  0.715742  -0.696134
-0.273266  0.564233  -0.779081
-0.386432  0.357493  -0.850217
-0.389181  0.15241  -0.908465
-0.303153  3.06379e-16  -0.952942
-0.171097  -0.0670045  -0.982973
-0.0451893  -0.0418052  -0.998103
0.878213  0.343923  -0.332355
0.657102  0.607893  -0.445738
0.363354  0.750244  -0.552365
0.0589935  0.75711  -0.650618
-0.19619  0.644496  -0.739009
-0.358225  0.453318  -0.816197
-0.408479  0.238668  -0.881012
-0.356882  0.0559557  -0.932472
-0.238155  -0.0526897  -0.969797
-0.102045  -0.0684716  -0.992421
0.939116  0.207771  -0.273663
0.764709  0.513115  -0.389786
0.493662  0.711546  -0.5
0.184483  0.7764  -0.602635
-0.10016  0.710891  -0.696134
-0.307816  0.546153  -0.779081
-0.40791  0.332777  -0.850217
-0.397904  0.12792  -0.908465
-0.302566  -0.0188469  -0.952942
-0.166601  -0.077512  -0.982973
-0.0425029  -0.0445337  -0.998103
0.974959  0.0607303  -0.213933
0.855132  0.397856  -0.332355
0.618039  0.647569  -0.445738
0.316009  0.771383  -0.552365
0.0118101  0.759313  -0.650618
-0.235879  0.631052  -0.739009
-0.385715  0.43017  -0.816197
-0.422527  0.212811  -0.881012
-0.35967  0.0336602  -0.932472
-0.234418  -0.0673938  -0.969797
-0.0975907  -0.0746832  -0.992421
0.924383  0.265754  -0.273663
0.731329  0.559664  -0.389786
0.448471  0.74086  -0.5
0.135857  0.786368  -0.602635
-0.144162  0.703289  -0.696134
-0.341175  0.525959  -0.779081
-0.427809  0.306774  -0.850217
-0.405087  0.102935  -0.908465
-0.300809  -0.0376209  -0.952942
-0.161459  -0.0877195  -0.982973
-0.039652  -0.0470899  -0.998103
0.969297  0.121226  -0.213933
0.828744  0.450249  -0.332355
0.576584  0.68474  -0.445738
0.267441  0.789537  -0.552365
-0.0354189  0.758578  -0.650618
-0.274655  0.615167  -0.739009
-0.411712  0.405359  -0.816197
-0.43494  0.186131  -0.881012
-0.361067  0.0112346  -0.932472
-0.229775  -0.0818371  -0.969797
-0.0927589  -0.0806059  -0.992421
0.906073  0.322709  -0.273663
0.695121  0.604048  -0.389786
0.401544  0.767308  -0.5
0.0867063  0.793293  -0.602635
-0.187606  0.692966  -0.696134
-0.373213  0.503731  -0.779081
-0.446054  0.279583  -0.850217
-0.410703  0.0775516  -0.908465
-0.297889  -0.0562493  -0.952942
-0.155694  -0.0975877  -0.982973
-0.0366478  -0.049464  -0.998103
0.959886  0.181252  -0.213933
0.799149  0.500901  -0.332355
0.532899  0.719261  -0.445738
0.217839  0.804636  -0.552365
-0.082511  0.754909  -0.650618
-0.312368  0.596902  -0.739009
-0.436117  0.378978  -0.816197
-0.44567  0.158731  -0.881012
-0.361067  -0.0112346  -0.932472
-0.224243  -0.0959639  -0.969797
-0.0875682  -0.0862168  -0.992421
0.987687  0.0307318  -0.153392
0.884257  0.378415  -0.273663
0.656223  0.646095  -0.389786
0.353064  0.790788  -0.5
0.0372198  0.797149  -0.602635
-0.230325  0.679962  -0.696134
-0.403808  0.479554  -0.779081
-0.462572  0.251312  -0.850217
-0.414729  0.0518684  -0.908465
-0.293815  -0.0746601  -0.952942
-0.149325  -0.107078  -0.982973
-0.0335017  -0.0516467  -0.998103
0.94676  0.240577  -0.213933
0.766462  0.549615  -0.332355
0.487152  0.751  -0.445738
0.167393  0.816623  -0.552365
-0.129284  0.748319  -0.650618
-0.348873  0.576328  -0.739009
-0.458834  0.351132  -0.816197
-0.454676  0.130717  -0.881012
-0.35967  -0.0336602  -0.932472
-0.217843  -0.109719  -0.969797
-0.0820388  -0.0914941  -0.992421
0.983866  0.0920765  -0.153392
0.859021  0.432656  -0.273663
0.614786  0.685642  -0.389786
0.303218  0.811208  -0.5
-0.0124106  0.797921  -0.602635
-0.272152  0.664327  -0.696134
-0.432841  0.453522  -0.779081
-0.477302  0.222068  -0.850217
-0.417152  0.0259844  -0.908465
-0.288605  -0.0927821  -0.952942
-0.14238  -0.116155  -0.982973
-0.030226  -0.0536296  -0.998103
0.929972  0.298972  -0.213933
0.73081  0.596202  -0.332355
0.43952  0.779833  -0.445738
0.1163  0.82545  -0.552365
-0.175556  0.738834  -0.650618
-0.384028  0.553523  -0.739009
-0.479776  0.321927  -0.816197
-0.461924  0.102197  -0.881012
-0.356882  -0.0559557  -0.932472
-0.2106  -0.12305  -0.969797
-0.0761919  -0.0964174  -0.992421
0.976239  0.153065  -0.153392
0.830461  0.485225  -0.273663
0.57097  0.722537  -0.389786
0.252199  0.82849  -0.5
-0.061993  0.795606  -0.602635
-0.312927  0.646123  -0.696134
-0.460199  0.425735  -0.779081
-0.490184  0.191964  -0.850217
-0.41796  4.22409e-16  -0.908465
-0.282279  -0.110545  -0.952942
-0.134883  -0.124782  -0.982973
-0.0268334  -0.055405  -0.998103
0.909587  0.356209  -0.213933
0.692331  0.640483  -0.332355
0.390188  0.805649  -0.445738
0.0647574  0.831083  -0.552365
-0.22115  0.726491  -0.650618
-0.417698  0.528578  -0.739009
-0.498862  0.291477  -0.816197
-0.467384  0.0732813  -0.881012
-0.352713  -0.0780346  -0.932472
-0.202543  -0.135905  -0.969797
-0.0700503  -0.100968  -0.992421
0.964834  0.213461  -0.153392
0.798688  0.535915  -0.273663
0.524946  0.756637  -0.389786
0.200205  0.842566  -0.5
-0.111336  0.790213  -0.602635
-0.352491  0.625418  -0.696134
-0.485776  0.396301  -0.779081