 VARIABLES = X Y
 ZONE N = 990, E = 1810, DATAPACKING= POINT, ZONETYPE= FETRIANGLE
0  0
0.125  0
0.125  0.125
0  0.125
0.25  0
0.25  0.125
0.25  0.25
0.125  0.25
0  0.25
0.375  0
0.375  0.125
0.5  0
0.5  0.125
0.5  0.25
0.375  0.25
0.375  0.375
0.25  0.375
0.5  0.375
0.5  0.5
0.375  0.5
0.25  0.5
0.125  0.375
0  0.375
0.125  0.5
0  0.5
0.625  0
0.625  0.125
0.75  0
0.75  0.0625
0.75  0.125
0.75  0.1875
0.75  0.25
0.625  0.25
0.8125  0
0.8125  0.0625
0.875  0
0.875  0.03125
0.875  0.0625
0.875  0.09375
0.875  0.125
0.8125  0.125
0.90625  0
0.90625  0.03125
0.9375  0
0.9375  0.015625
0.9375  0.03125
0.9375  0.046875
0.9375  0.0625
0.90625  0.0625
0.953125  0
0.953125  0.015625
0.96875  0
0.96875  0.0078125
0.96875  0.015625
0.96875  0.0234375
0.96875  0.03125
0.953125  0.03125
0.976563  0
0.976563  0.0078125
0.984375  0
0.984375  0.0078125
0.984375  0.015625
0.976563  0.015625
0.992188  0
0.992188  0.0078125
1  0
1  0.0078125
1  0.015625
0.992188  0.015625
0.992188  0.0234375
0.984375  0.0234375
1  0.0234375
1  0.03125
0.992188  0.03125
0.984375  0.03125
0.976563  0.0234375
0.976563  0.03125
0.976563  0.0390625
0.96875  0.0390625
0.984375  0.0390625
0.984375  0.046875
0.976563  0.046875
0.96875  0.046875
0.992188  0.0390625
1  0.0390625
1  0.046875
0.992188  0.046875
0.992188  0.0546875
0.984375  0.0546875
1  0.0546875
1  0.0625
0.992188  0.0625
0.984375  0.0625
0.976563  0.0546875
0.96875  0.0546875
0.976563  0.0625
0.96875  0.0625
0.953125  0.046875
0.953125  0.0625
0.953125  0.078125
0.9375  0.078125
0.96875  0.0703125
0.96875  0.078125
0.96875  0.0859375
0.96875  0.09375
0.953125  0.09375
0.9375  0.09375
0.976563  0.0703125
0.984375  0.0703125
0.984375  0.078125
0.976563  0.078125
0.992188  0.0703125
1  0.0703125
1  0.078125
0.992188  0.078125
0.992188  0.0859375
0.984375  0.0859375
1  0.0859375
1  0.09375
0.992188  0.09375
0.984375  0.09375
0.976563  0.0859375
0.976563  0.09375
0.976563  0.101563
0.96875  0.101563
0.984375  0.101563
0.984375  0.109375
0.976563  0.109375
0.96875  0.109375
0.992188  0.101563
1  0.101563
1  0.109375
0.992188  0.109375
0.992188  0.117188
0.984375  0.117188
1  0.117188
1  0.125
0.992188  0.125
0.984375  0.125
0.976563  0.117188
0.96875  0.117188
0.976563  0.125
0.96875  0.125
0.953125  0.109375
0.9375  0.109375
0.953125  0.125
0.9375  0.125
0.90625  0.09375
0.90625  0.125
0.90625  0.15625
0.875  0.15625
0.9375  0.140625
0.9375  0.15625
0.9375  0.171875
0.9375  0.1875
0.90625  0.1875
0.875  0.1875
0.953125  0.140625
0.96875  0.132813
0.96875  0.140625
0.96875  0.148438
0.96875  0.15625
0.953125  0.15625
0.976563  0.132813
0.984375  0.132813
0.984375  0.140625
0.976563  0.140625
0.992188  0.132813
1  0.132813
1  0.140625
0.992188  0.140625
0.992188  0.148438
0.984375  0.148438
1  0.148438
1  0.15625
0.992188  0.15625
0.984375  0.15625
0.976563  0.148438
0.976563  0.15625
0.976563  0.164063
0.96875  0.164063
0.984375  0.164063
0.984375  0.171875
0.976563  0.171875
0.96875  0.171875
0.992188  0.164063
1  0.164063
1  0.171875
0.992188  0.171875
0.992188  0.179688
0.984375  0.179688
1  0.179688
1  0.1875
0.992188  0.1875
0.984375  0.1875
0.976563  0.179688
0.96875  0.179688
0.976563  0.1875
0.96875  0.1875
0.953125  0.171875
0.953125  0.1875
0.953125  0.203125
0.9375  0.203125
0.96875  0.195313
0.96875  0.203125
0.96875  0.210938
0.96875  0.21875
0.953125  0.21875
0.9375  0.21875
0.976563  0.195313
0.984375  0.195313
0.984375  0.203125
0.976563  0.203125
0.992188  0.195313
1  0.195313
1  0.203125
0.992188  0.203125
0.992188  0.210938
0.984375  0.210938
1  0.210938
1  0.21875
0.992188  0.21875
0.984375  0.21875
0.976563  0.210938
0.976563  0.21875
0.976563  0.226563
0.96875  0.226563
0.984375  0.226563
0.984375  0.234375
0.976563  0.234375
0.96875  0.234375
0.992188  0.226563
1  0.226563
1  0.234375
0.992188  0.234375
0.992188  0.242188
0.984375  0.242188
1  0.242188
1  0.25
0.992188  0.25
0.984375  0.25
0.976563  0.242188
0.96875  0.242188
0.976563  0.25
0.96875  0.25
0.953125  0.234375
0.9375  0.234375
0.953125  0.25
0.9375  0.25
0.90625  0.21875
0.875  0.21875
0.90625  0.25
0.875  0.25
0.8125  0.1875
0.8125  0.25
0.8125  0.3125
0.75  0.3125
0.875  0.28125
0.875  0.3125
0.875  0.34375
0.875  0.375
0.8125  0.375
0.75  0.375
0.90625  0.28125
0.9375  0.265625
0.9375  0.28125
0.9375  0.296875
0.9375  0.3125
0.90625  0.3125
0.953125  0.265625
0.96875  0.257813
0.96875  0.265625
0.96875  0.273438
0.96875  0.28125
0.953125  0.28125
0.976563  0.257813
0.984375  0.257813
0.984375  0.265625
0.976563  0.265625
0.992188  0.257813
1  0.257813
1  0.265625
0.992188  0.265625
0.992188  0.273438
0.984375  0.273438
1  0.273438
1  0.28125
0.992188  0.28125
0.984375  0.28125
0.976563  0.273438
0.976563  0.28125
0.976563  0.289063
0.96875  0.289063
0.984375  0.289063
0.984375  0.296875
0.976563  0.296875
0.96875  0.296875
0.992188  0.289063
1  0.289063
1  0.296875
0.992188  0.296875
0.992188  0.304688
0.984375  0.304688
1  0.304688
1  0.3125
0.992188  0.3125
0.984375  0.3125
0.976563  0.304688
0.96875  0.304688
0.976563  0.3125
0.96875  0.3125
0.953125  0.296875
0.953125  0.3125
0.953125  0.328125
0.9375  0.328125
0.96875  0.320313
0.96875  0.328125
0.96875  0.335938
0.96875  0.34375
0.960938  0.34375
0.953125  0.34375
0.9375  0.34375
0.976563  0.320313
0.984375  0.320313
0.984375  0.328125
0.976563  0.328125
0.992188  0.320313
1  0.320313
1  0.328125
0.992188  0.328125
0.992188  0.335938
0.984375  0.335938
1  0.335938
1  0.34375
0.992188  0.34375
0.984375  0.34375
0.976563  0.335938
0.976563  0.34375
0.976563  0.351563
0.96875  0.351563
0.984375  0.351563
0.984375  0.359375
0.976563  0.359375
0.96875  0.359375
0.992188  0.351563
1  0.351563
1  0.359375
0.992188  0.359375
0.992188  0.367188
0.984375  0.367188
1  0.367188
1  0.375
0.992188  0.375
0.984375  0.375
0.976563  0.367188
0.96875  0.367188
0.976563  0.375
0.96875  0.375
0.953125  0.351563
0.953125  0.359375
0.9375  0.359375
0.960938  0.351563
0.960938  0.359375
0.960938  0.367188
0.953125  0.367188
0.960938  0.375
0.953125  0.375
0.9375  0.375
0.90625  0.34375
0.90625  0.375
0.90625  0.40625
0.875  0.40625
0.9375  0.390625
0.9375  0.40625
0.9375  0.421875
0.9375  0.4375
0.90625  0.4375
0.875  0.4375
0.953125  0.382813
0.953125  0.390625
0.960938  0.382813
0.96875  0.382813
0.96875  0.390625
0.960938  0.390625
0.960938  0.398438
0.953125  0.398438
0.96875  0.398438
0.96875  0.40625
0.960938  0.40625
0.953125  0.40625
0.976563  0.382813
0.984375  0.382813
0.984375  0.390625
0.976563  0.390625
0.992188  0.382813
1  0.382813
1  0.390625
0.992188  0.390625
0.992188  0.398438
0.984375  0.398438
1  0.398438
1  0.40625
0.992188  0.40625
0.984375  0.40625
0.976563  0.398438
0.976563  0.40625
0.976563  0.414063
0.96875  0.414063
0.984375  0.414063
0.984375  0.421875
0.976563  0.421875
0.96875  0.421875
0.992188  0.414063
1  0.414063
1  0.421875
0.992188  0.421875
0.992188  0.429688
0.984375  0.429688
1  0.429688
1  0.4375
0.992188  0.4375
0.984375  0.4375
0.976563  0.429688
0.96875  0.429688
0.976563  0.4375
0.96875  0.4375
0.953125  0.414063
0.953125  0.421875
0.960938  0.414063
0.960938  0.421875
0.960938  0.429688
0.953125  0.429688
0.960938  0.4375
0.953125  0.4375
0.953125  0.445313
0.953125  0.453125
0.9375  0.453125
0.960938  0.445313
0.96875  0.445313
0.96875  0.453125
0.960938  0.453125
0.960938  0.460938
0.953125  0.460938
0.96875  0.460938
0.96875  0.46875
0.960938  0.46875
0.953125  0.46875
0.9375  0.46875
0.976563  0.445313
0.984375  0.445313
0.984375  0.453125
0.976563  0.453125
0.992188  0.445313
1  0.445313
1  0.453125
0.992188  0.453125
0.992188  0.460938
0.984375  0.460938
1  0.460938
1  0.46875
0.992188  0.46875
0.984375  0.46875
0.976563  0.460938
0.976563  0.46875
0.976563  0.476563
0.96875  0.476563
0.984375  0.476563
0.984375  0.484375
0.976563  0.484375
0.96875  0.484375
0.992188  0.476563
1  0.476563
1  0.484375
0.992188  0.484375
0.992188  0.492188
0.984375  0.492188
1  0.492188
1  0.5
0.992188  0.5
0.984375  0.5
0.976563  0.492188
0.96875  0.492188
0.976563  0.5
0.96875  0.5
0.953125  0.476563
0.953125  0.484375
0.9375  0.484375
0.960938  0.476563
0.960938  0.484375
0.960938  0.492188
0.953125  0.492188
0.960938  0.5
0.953125  0.5
0.9375  0.5
0.90625  0.46875
0.875  0.46875
0.90625  0.5
0.875  0.5
0.8125  0.4375
0.75  0.4375
0.8125  0.5
0.75  0.5
0.625  0.375
0.625  0.5
0.625  0.625
0.5  0.625
0.75  0.5625
0.75  0.625
0.75  0.6875
0.75  0.75
0.625  0.75
0.5  0.75
0.8125  0.5625
0.875  0.53125
0.875  0.5625
0.875  0.59375
0.875  0.625
0.8125  0.625
0.90625  0.53125
0.9375  0.515625
0.9375  0.53125
0.9375  0.546875
0.9375  0.5625
0.90625  0.5625
0.953125  0.507813
0.953125  0.515625
0.960938  0.507813
0.96875  0.507813
0.96875  0.515625
0.960938  0.515625
0.960938  0.523438
0.953125  0.523438
0.96875  0.523438
0.96875  0.53125
0.960938  0.53125
0.953125  0.53125
0.976563  0.507813
0.984375  0.507813
0.984375  0.515625
0.976563  0.515625
0.992188  0.507813
1  0.507813
1  0.515625
0.992188  0.515625
0.992188  0.523438
0.984375  0.523438
1  0.523438
1  0.53125
0.992188  0.53125
0.984375  0.53125
0.976563  0.523438
0.976563  0.53125
0.976563  0.539063
0.96875  0.539063
0.984375  0.539063
0.984375  0.546875
0.976563  0.546875
0.96875  0.546875
0.992188  0.539063
1  0.539063
1  0.546875
0.992188  0.546875
0.992188  0.554688
0.984375  0.554688
1  0.554688
1  0.5625
0.992188  0.5625
0.984375  0.5625
0.976563  0.554688
0.96875  0.554688
0.976563  0.5625
0.96875  0.5625
0.953125  0.539063
0.953125  0.546875
0.960938  0.539063
0.960938  0.546875
0.960938  0.554688
0.953125  0.554688
0.960938  0.5625
0.953125  0.5625
0.953125  0.570313
0.953125  0.578125
0.9375  0.578125
0.960938  0.570313
0.96875  0.570313
0.96875  0.578125
0.960938  0.578125
0.960938  0.585938
0.953125  0.585938
0.96875  0.585938
0.96875  0.59375
0.960938  0.59375
0.953125  0.59375
0.9375  0.59375
0.976563  0.570313
0.984375  0.570313
0.984375  0.578125
0.976563  0.578125
0.992188  0.570313
1  0.570313
1  0.578125
0.992188  0.578125
0.992188  0.585938
0.984375  0.585938
1  0.585938
1  0.59375
0.992188  0.59375
0.984375  0.59375
0.976563  0.585938
0.976563  0.59375
0.976563  0.601563
0.96875  0.601563
0.984375  0.601563
0.984375  0.609375
0.976563  0.609375
0.96875  0.609375
0.992188  0.601563
1  0.601563
1  0.609375
0.992188  0.609375
0.992188  0.617188
0.984375  0.617188
1  0.617188
1  0.625
0.992188  0.625
0.984375  0.625
0.976563  0.617188
0.96875  0.617188
0.976563  0.625
0.96875  0.625
0.953125  0.601563
0.953125  0.609375
0.9375  0.609375
0.960938  0.601563
0.960938  0.609375
0.960938  0.617188
0.953125  0.617188
0.960938  0.625
0.953125  0.625
0.9375  0.625
0.90625  0.59375
0.90625  0.625
0.90625  0.65625
0.875  0.65625
0.9375  0.640625
0.9375  0.65625
0.9375  0.671875
0.9375  0.6875
0.90625  0.6875
0.875  0.6875
0.953125  0.632813
0.953125  0.640625
0.960938  0.632813
0.96875  0.632813
0.96875  0.640625
0.960938  0.640625
0.960938  0.648438
0.953125  0.648438
0.96875  0.648438
0.96875  0.65625
0.960938  0.65625
0.953125  0.65625
0.976563  0.632813
0.984375  0.632813
0.984375  0.640625
0.976563  0.640625
0.992188  0.632813
1  0.632813
1  0.640625
0.992188  0.640625
0.992188  0.648438
0.984375  0.648438
1  0.648438
1  0.65625
0.992188  0.65625
0.984375  0.65625
0.976563  0.648438
0.976563  0.65625
0.976563  0.664063
0.96875  0.664063
0.984375  0.664063
0.984375  0.671875
0.976563  0.671875
0.96875  0.671875
0.992188  0.664063
1  0.664063
1  0.671875
0.992188  0.671875
0.992188  0.679688
0.984375  0.679688
1  0.679688
1  0.6875
0.992188  0.6875
0.984375  0.6875
0.976563  0.679688
0.96875  0.679688
0.976563  0.6875
0.96875  0.6875
0.953125  0.671875
0.953125  0.6875
0.953125  0.703125
0.9375  0.703125
0.96875  0.695313
0.96875  0.703125
0.96875  0.710938
0.96875  0.71875
0.953125  0.71875
0.9375  0.71875
0.976563  0.695313
0.984375  0.695313
0.984375  0.703125
0.976563  0.703125
0.992188  0.695313
1  0.695313
1  0.703125
0.992188  0.703125
0.992188  0.710938
0.984375  0.710938
1  0.710938
1  0.71875
0.992188  0.71875
0.984375  0.71875
0.976563  0.710938
0.976563  0.71875
0.976563  0.726563
0.96875  0.726563
0.984375  0.726563
0.984375  0.734375
0.976563  0.734375
0.96875  0.734375
0.992188  0.726563
1  0.726563
1  0.734375
0.992188  0.734375
0.992188  0.742188
0.984375  0.742188
1  0.742188
1  0.75
0.992188  0.75
0.984375  0.75
0.976563  0.742188
0.96875  0.742188
0.976563  0.75
0.96875  0.75
0.953125  0.734375
0.9375  0.734375
0.953125  0.75
0.9375  0.75
0.90625  0.71875
0.875  0.71875
0.90625  0.75
0.875  0.75
0.8125  0.6875
0.8125  0.75
0.8125  0.8125
0.75  0.8125
0.875  0.78125
0.875  0.8125
0.875  0.84375
0.875  0.875
0.8125  0.875
0.75  0.875
0.90625  0.78125
0.9375  0.765625
0.9375  0.78125
0.9375  0.796875
0.9375  0.8125
0.90625  0.8125
0.953125  0.765625
0.96875  0.757813
0.96875  0.765625
0.96875  0.773438
0.96875  0.78125
0.953125  0.78125
0.976563  0.757813
0.984375  0.757813
0.984375  0.765625
0.976563  0.765625
0.992188  0.757813
1  0.757813
1  0.765625
0.992188  0.765625
0.992188  0.773438
0.984375  0.773438
1  0.773438
1  0.78125
0.992188  0.78125
0.984375  0.78125
0.976563  0.773438
0.976563  0.78125
0.976563  0.789063
0.96875  0.789063
0.984375  0.789063
0.984375  0.796875
0.976563  0.796875
0.96875  0.796875
0.992188  0.789063
1  0.789063
1  0.796875
0.992188  0.796875
0.992188  0.804688
0.984375  0.804688
1  0.804688
1  0.8125
0.992188  0.8125
0.984375  0.8125
0.976563  0.804688
0.96875  0.804688
0.976563  0.8125
0.96875  0.8125
0.953125  0.796875
0.953125  0.8125
0.953125  0.828125
0.9375  0.828125
0.96875  0.820313
0.96875  0.828125
0.96875  0.835938
0.96875  0.84375
0.953125  0.84375
0.9375  0.84375
0.976563  0.820313
0.984375  0.820313
0.984375  0.828125
0.976563  0.828125
0.992188  0.820313
1  0.820313
1  0.828125
0.992188  0.828125
0.992188  0.835938
0.984375  0.835938
1  0.835938
1  0.84375
0.992188  0.84375
0.984375  0.84375
0.976563  0.835938
0.976563  0.84375
0.976563  0.851563
0.96875  0.851563
0.984375  0.851563
0.984375  0.859375
0.976563  0.859375
0.96875  0.859375
0.992188  0.851563
1  0.851563
1  0.859375
0.992188  0.859375
0.992188  0.867188
0.984375  0.867188
1  0.867188
1  0.875
0.992188  0.875
0.984375  0.875
0.976563  0.867188
0.96875  0.867188
0.976563  0.875
0.96875  0.875
0.953125  0.859375
0.9375  0.859375
0.953125  0.875
0.9375  0.875
0.90625  0.84375
0.90625  0.875
0.90625  0.90625
0.875  0.90625
0.9375  0.890625
0.9375  0.90625
0.9375  0.921875
0.9375  0.9375
0.90625  0.9375
0.875  0.9375
0.953125  0.890625
0.96875  0.882813
0.96875  0.890625
0.96875  0.898438
0.96875  0.90625
0.953125  0.90625
0.976563  0.882813
0.984375  0.882813
0.984375  0.890625
0.976563  0.890625
0.992188  0.882813
1  0.882813
1  0.890625
0.992188  0.890625
0.992188  0.898438
0.984375  0.898438
1  0.898438
1  0.90625
0.992188  0.90625
0.984375  0.90625
0.976563  0.898438
0.976563  0.90625
0.976563  0.914063
0.96875  0.914063
0.984375  0.914063
0.984375  0.921875
0.976563  0.921875
0.96875  0.921875
0.992188  0.914063
1  0.914063
1  0.921875
0.992188  0.921875
0.992188  0.929688
0.984375  0.929688
1  0.929688
1  0.9375
0.992188  0.9375
0.984375  0.9375
0.976563  0.929688
0.96875  0.929688
0.976563  0.9375
0.96875  0.9375
0.953125  0.921875
0.953125  0.9375
0.953125  0.953125
0.9375  0.953125
0.96875  0.945313
0.96875  0.953125
0.96875  0.960938
0.96875  0.96875
0.953125  0.96875
0.9375  0.96875
0.976563  0.945313
0.984375  0.945313
0.984375  0.953125
0.976563  0.953125
0.992188  0.945313
1  0.945313
1  0.953125
0.992188  0.953125
0.992188  0.960938
0.984375  0.960938
1  0.960938
1  0.96875
0.992188  0.96875
0.984375  0.96875
0.976563  0.960938
0.976563  0.96875
0.976563  0.976563
0.96875  0.976563
0.984375  0.976563
0.984375  0.984375
0.976563  0.984375
0.96875  0.984375
0.992188  0.976563
1  0.976563
1  0.984375
0.992188  0.984375
0.992188  0.992188
0.984375  0.992188
1  0.992188
1  1
0.992188  1
0.984375  1
0.976563  0.992188
0.96875  0.992188
0.976563  1
0.96875  1
0.953125  0.984375
0.9375  0.984375
0.953125  1
0.9375  1
0.90625  0.96875
0.875  0.96875
0.90625  1
0.875  1
0.8125  0.9375
0.75  0.9375
0.8125  1
0.75  1
0.625  0.875
0.5  0.875
0.625  1
0.5  1
0.125  0.625
0  0.625
0.25  0.625
0.25  0.75
0.125  0.75
0  0.75
0.375  0.625
0.375  0.75
0.375  0.875
0.25  0.875
0.375  1
0.25  1
0.125  0.875
0  0.875
0.125  1
0  1
3  1  2
4  1  3
6  2  5
3  2  6
7  3  6
8  3  7
8  4  3
9  4  8
11  5  10
6  5  11
13  10  12
11  10  13
14  11  13
15  11  14
15  6  11
7  6  15
16  7  15
17  7  16
18  15  14
16  15  18
19  16  18
20  16  19
20  17  16
21  17  20
22  9  8
23  9  22
17  8  7
22  8  17
21  22  17
24  22  21
24  23  22
25  23  24
27  12  26
13  12  27
29  26  28
27  29  30
27  26  29
31  27  30
33  31  32
33  27  31
33  13  27
14  13  33
35  28  34
29  28  35
37  34  36
35  37  38
35  34  37
39  35  38
41  39  40
41  35  39
41  29  35
30  29  41
43  36  42
37  36  43
45  42  44
43  45  46
43  42  45
47  43  46
49  47  48
49  43  47
49  37  43
38  37  49
51  44  50
45  44  51
53  50  52
51  53  54
51  50  53
55  51  54
57  55  56
57  51  55
57  45  51
46  45  57
59  52  58
53  52  59
61  58  60
59  58  61
62  59  61
63  59  62
63  53  59
54  53  63
65  60  64
61  60  65
67  64  66
65  64  67
68  65  67
69  65  68
69  61  65
62  61  69
70  62  69
71  62  70
72  69  68
70  69  72
73  70  72
74  70  73
74  71  70
75  71  74
76  54  63
55  54  76
71  63  62
76  63  71
75  76  71
77  76  75
77  55  76
56  55  77
78  56  77
79  56  78
80  77  75
78  77  80
81  78  80
82  78  81
82  79  78
83  79  82
84  75  74
80  75  84
85  74  73
84  74  85
86  84  85
87  84  86
87  80  84
81  80  87
88  81  87
89  81  88
90  87  86
88  87  90
91  88  90
92  88  91
92  89  88
93  89  92
94  83  82
95  83  94
89  82  81
94  82  89
93  94  89
96  94  93
96  95  94
97  95  96
98  46  57
47  46  98
79  57  56
98  79  83
98  57  79
95  98  83
99  95  97
99  98  95
99  47  98
48  47  99
100  48  99
101  48  100
102  99  97
100  102  103
100  99  102
104  100  103
106  104  105
106  100  104
106  101  100
107  101  106
108  97  96
102  97  108
109  96  93
108  96  109
110  108  109
111  108  110
111  102  108
103  102  111
112  93  92
109  93  112
113  92  91
112  92  113
114  112  113
115  112  114
115  109  112
110  109  115
116  110  115
117  110  116
118  115  114
116  115  118
119  116  118
120  116  119
120  117  116
121  117  120
122  103  111
104  103  122
117  111  110
122  111  117
121  122  117
123  122  121
123  104  122
105  104  123
124  105  123
125  105  124
126  123  121
124  123  126
127  124  126
128  124  127
128  125  124
129  125  128
130  121  120
126  121  130
131  120  119
130  120  131
132  130  131
133  130  132
133  126  130
127  126  133
134  127  133
135  127  134
136  133  132
134  133  136
137  134  136
138  134  137
138  135  134
139  135  138
140  129  128
141  129  140
135  128  127
140  128  135
139  140  135
142  140  139
142  141  140
143  141  142
144  107  106
145  107  144
125  106  105
144  125  129
144  106  125
141  144  129
146  141  143
146  144  141
146  145  144
147  145  146
148  38  49
39  38  148
101  49  48
148  101  107
148  49  101
145  148  107
149  145  147
149  148  145
149  39  148
40  39  149
150  40  149
151  40  150
152  149  147
150  152  153
150  149  152
154  150  153
156  154  155
156  150  154
156  151  150
157  151  156
158  147  146
152  147  158
159  146  143
158  159  160
158  146  159
161  158  160
163  161  162
163  158  161
163  152  158
153  152  163
164  143  142
159  143  164
165  142  139
164  142  165
166  164  165
167  164  166
167  159  164
160  159  167
168  139  138
165  139  168
169  138  137
168  138  169
170  168  169
171  168  170
171  165  168
166  165  171
172  166  171
173  166  172
174  171  170
172  171  174
175  172  174
176  172  175
176  173  172
177  173  176
178  160  167
161  160  178
173  167  166
178  167  173
177  178  173
179  178  177
179  161  178
162  161  179
180  162  179
181  162  180
182  179  177
180  179  182
183  180  182
184  180  183
184  181  180
185  181  184
186  177  176
182  177  186
187  176  175
186  176  187
188  186  187
189  186  188
189  182  186
183  182  189
190  183  189
191  183  190
192  189  188
190  189  192
193  190  192
194  190  193
194  191  190
195  191  194
196  185  184
197  185  196
191  184  183
196  184  191
195  196  191
198  196  195
198  197  196
199  197  198
200  153  163
154  153  200
181  163  162
200  181  185
200  163  181
197  200  185
201  197  199
201  200  197
201  154  200
155  154  201
202  155  201
203  155  202
204  201  199
202  204  205
202  201  204
206  202  205
208  206  207
208  202  206
208  203  202
209  203  208
210  199  198
204  199  210
211  198  195
210  198  211
212  210  211
213  210  212
213  204  210
205  204  213
214  195  194
211  195  214
215  194  193
214  194  215
216  214  215
217  214  216
217  211  214
212  211  217
218  212  217
219  212  218
220  217  216
218  217  220
221  218  220
222  218  221
222  219  218
223  219  222
224  205  213
206  205  224
219  213  212
224  213  219
223  224  219
225  224  223
225  206  224
207  206  225
226  207  225
227  207  226
228  225  223
226  225  228
229  226  228
230  226  229
230  227  226
231  227  230
232  223  222
228  223  232
233  222  221
232  222  233
234  232  233
235  232  234
235  228  232
229  228  235
236  229  235
237  229  236
238  235  234
236  235  238
239  236  238
240  236  239
240  237  236
241  237  240
242  231  230
243  231  242
237  230  229
242  230  237
241  242  237
244  242  241
244  243  242
245  243  244
246  209  208
247  209  246
227  208  207
246  227  231
246  208  227
243  246  231
248  243  245
248  246  243
248  247  246
249  247  248
250  157  156
251  157  250
203  156  155
250  203  209
250  156  203
247  250  209
252  247  249
252  250  247
252  251  250
253  251  252
254  30  41
31  30  254
151  41  40
254  151  157
254  41  151
251  254  157
255  251  253
255  254  251
255  31  254
32  31  255
256  32  255
257  32  256
258  255  253
256  258  259
256  255  258
260  256  259
262  260  261
262  256  260
262  257  256
263  257  262
264  253  252
258  253  264
265  252  249
264  265  266
264  252  265
267  264  266
269  267  268
269  264  267
269  258  264
259  258  269
270  249  248
265  249  270
271  248  245
270  271  272
270  248  271
273  270  272
275  273  274
275  270  273
275  265  270
266  265  275
276  245  244
271  245  276
277  244  241
276  244  277
278  276  277
279  276  278
279  271  276
272  271  279
280  241  240
277  241  280
281  240  239
280  240  281
282  280  281
283  280  282
283  277  280
278  277  283
284  278  283
285  278  284
286  283  282
284  283  286
287  284  286
288  284  287
288  285  284
289  285  288
290  272  279
273  272  290
285  279  278
290  279  285
289  290  285
291  290  289
291  273  290
274  273  291
292  274  291
293  274  292
294  291  289
292  291  294
295  292  294
296  292  295
296  293  292
297  293  296
298  289  288
294  289  298
299  288  287
298  288  299
300  298  299
301  298  300
301  294  298
295  294  301
302  295  301
303  295  302
304  301  300
302  301  304
305  302  304
306  302  305
306  303  302
307  303  306
308  297  296
309  297  308
303  296  295
308  296  303
307  308  303
310  308  307
310  309  308
311  309  310
312  266  275
267  266  312
293  275  274
312  293  297
312  275  293
309  312  297
313  309  311
313  312  309
313  267  312
268  267  313
314  268  313
315  268  314
316  313  311
314  316  317
314  313  316
318  314  317
320  318  319
320  314  318
321  314  320
321  315  314
322  315  321
323  311  310
316  311  323
324  310  307
323  310  324
325  323  324
326  323  325
326  316  323
317  316  326
327  307  306
324  307  327
328  306  305
327  306  328
329  327  328
330  327  329
330  324  327
325  324  330
331  325  330
332  325  331
333  330  329
331  330  333
334  331  333
335  331  334
335  332  331
336  332  335
337  317  326
318  317  337
332  326  325
337  326  332
336  337  332
338  337  336
338  318  337
319  318  338
339  319  338
340  319  339
341  338  336
339  338  341
342  339  341
343  339  342
343  340  339
344  340  343
345  336  335
341  336  345
346  335  334
345  335  346
347  345  346
348  345  347
348  341  345
342  341  348
349  342  348
350  342  349
351  348  347
349  348  351
352  349  351
353  349  352
353  350  349
354  350  353
355  344  343
356  344  355
350  343  342
355  343  350
354  355  350
357  355  354
357  356  355
358  356  357
359  322  321
361  359  360
361  322  359
362  321  320
359  321  362
340  320  319
362  320  340
344  362  340
363  362  344
363  359  362
360  359  363
364  360  363
365  360  364
356  363  344
364  363  356
358  364  356
366  364  358
366  365  364
367  365  366
365  361  360
368  365  367
368  361  365
369  259  269
260  259  369
315  269  268
369  315  322
369  269  315
361  369  322
370  361  368
370  369  361
370  260  369
261  260  370
371  261  370
372  261  371
373  370  368
371  373  374
371  370  373
375  371  374
377  375  376
377  371  375
377  372  371
378  372  377
379  368  367
373  379  380
373  368  379
381  367  366
379  367  381
382  366  358
381  366  382
383  381  382
384  381  383
384  379  381
380  379  384
385  380  384
386  380  385
387  384  383
385  384  387
388  385  387
389  385  388
389  386  385
390  386  389
386  373  380
374  386  390
374  373  386
391  358  357
382  358  391
392  357  354
391  357  392
393  391  392
394  391  393
394  382  391
383  382  394
395  354  353
392  354  395
396  353  352
395  353  396
397  395  396
398  395  397
398  392  395
393  392  398
399  393  398
400  393  399
401  398  397
399  398  401
402  399  401
403  399  402
403  400  399
404  400  403
405  383  394
387  383  405
400  394  393
405  394  400
404  405  400
406  405  404
406  387  405
388  387  406
407  388  406
408  388  407
409  406  404
407  406  409
410  407  409
411  407  410
411  408  407
412  408  411
413  404  403
409  404  413
414  403  402
413  403  414
415  413  414
416  413  415
416  409  413
410  409  416
417  410  416
418  410  417
419  416  415
417  416  419
420  417  419
421  417  420
421  418  417
422  418  421
423  412  411
424  412  423
418  411  410
423  411  418
422  423  418
425  423  422
425  424  423
426  424  425
427  374  390
375  427  428
375  374  427
429  390  389
427  390  429
408  389  388
429  389  408
412  429  408
430  429  412
430  427  429
428  427  430
431  428  430
432  428  431
424  430  412
431  430  424
426  431  424
433  431  426
433  432  431
434  432  433
432  375  428
376  432  434
376  375  432
435  376  434
437  435  436
437  376  435
438  434  433
435  434  438
439  433  426
438  433  439
440  438  439
441  438  440
441  435  438
436  435  441
442  436  441
443  436  442
444  441  440
442  441  444
445  442  444
446  442  445
446  443  442
447  443  446
443  437  436
448  443  447
448  437  443
449  426  425
439  426  449
450  425  422
449  425  450
451  449  450
452  449  451
452  439  449
440  439  452
453  422  421
450  422  453
454  421  420
453  421  454
455  453  454
456  453  455
456  450  453
451  450  456
457  451  456
458  451  457
459  456  455
457  456  459
460  457  459
461  457  460
461  458  457
462  458  461
463  440  452
444  440  463
458  452  451
463  452  458
462  463  458
464  463  462
464  444  463
445  444  464
465  445  464
466  445  465
467  464  462
465  464  467
468  465  467
469  465  468
469  466  465
470  466  469
471  462  461
467  462  471
472  461  460
471  461  472
473  471  472
474  471  473
474  467  471
468  467  474
475  468  474
476  468  475
477  474  473
475  474  477
478  475  477
479  475  478
479  476  475
480  476  479
481  470  469
482  470  481
476  469  468
481  469  476
480  481  476
483  481  480
483  482  481
484  482  483
485  448  447
487  485  486
487  448  485
488  447  446
485  447  488
466  446  445
488  446  466
470  488  466
489  488  470
489  485  488
486  485  489
490  486  489
491  486  490
482  489  470
490  489  482
484  490  482
492  490  484
492  491  490
493  491  492
491  487  486
494  491  493
494  487  491
495  378  377
496  378  495
437  377  376
495  437  448
495  377  437
487  495  448
497  487  494
497  495  487
497  496  495
498  496  497
499  263  262
500  263  499
372  262  261
499  372  378
499  262  372
496  499  378
501  496  498
501  499  496
501  500  499
502  500  501
503  14  33
18  14  503
257  33  32
503  257  263
503  33  257
500  503  263
504  500  502
504  503  500
504  18  503
19  18  504
505  19  504
506  19  505
507  504  502
505  507  508
505  504  507
509  505  508
511  509  510
511  505  509
511  506  505
512  506  511
513  502  501
507  502  513
514  501  498
513  514  515
513  501  514
516  513  515
518  516  517
518  513  516
518  507  513
508  507  518
519  498  497
514  498  519
520  497  494
519  520  521
519  497  520
522  519  521
524  522  523
524  519  522
524  514  519
515  514  524
525  494  493
520  525  526
520  494  525
527  493  492
525  493  527
528  492  484
527  492  528
529  527  528
530  527  529
530  525  527
526  525  530
531  526  530
532  526  531
533  530  529
531  530  533
534  531  533
535  531  534
535  532  531
536  532  535
532  520  526
521  532  536
521  520  532
537  484  483
528  484  537
538  483  480
537  483  538
539  537  538
540  537  539
540  528  537
529  528  540
541  480  479
538  480  541
542  479  478
541  479  542
543  541  542
544  541  543
544  538  541
539  538  544
545  539  544
546  539  545
547  544  543
545  544  547
548  545  547
549  545  548
549  546  545
550  546  549
551  529  540
533  529  551
546  540  539
551  540  546
550  551  546
552  551  550
552  533  551
534  533  552
553  534  552
554  534  553
555  552  550
553  552  555
556  553  555
557  553  556
557  554  553
558  554  557
559  550  549
555  550  559
560  549  548
559  549  560
561  559  560
562  559  561
562  555  559
556  555  562
563  556  562
564  556  563
565  562  561
563  562  565
566  563  565
567  563  566
567  564  563
568  564  567
569  558  557
570  558  569
564  557  556